                  Welcome to Q-Chem
     A Quantum Leap Into The Future Of Chemistry


 Q-Chem 5.4, Q-Chem, Inc., Pleasanton, CA (2021)

 E. Epifanovsky,  A. T. B. Gilbert,  Xintian Feng,  Joonho Lee,  Yuezhi Mao,  
 N. Mardirossian,  P. Pokhilko,  A. White,  M. Wormit,  M. P. Coons,  
 A. L. Dempwolff,  Zhengting Gan,  D. Hait,  P. R. Horn,  L. D. Jacobson,  
 I. Kaliman,  J. Kussmann,  A. W. Lange,  Ka Un Lao,  D. S. Levine,  Jie Liu,  
 S. C. McKenzie,  A. F. Morrison,  K. Nanda,  F. Plasser,  D. R. Rehn,  
 M. L. Vidal,  Zhi-Qiang You,  Ying Zhu,  B. Alam,  B. Albrecht,  
 A. Aldossary,  E. Alguire,  J. H. Andersen,  D. Barton,  K. Begam,  A. Behn,  
 Y. A. Bernard,  E. J. Berquist,  H. Burton,  A. Carreras,  K. Carter-Fenk,  
 R. Chakraborty,  A. D. Chien,  K. D. Closser,  V. Cofer-Shabica,  
 S. Dasgupta,  Jia Deng,  M. de Wergifosse,  M. Diedenhofen,  Hainam Do,  
 S. Ehlert,  Po-Tung Fang,  S. Fatehi,  Qingguo Feng,  J. Gayvert,  
 Qinghui Ge,  G. Gidofalvi,  M. Goldey,  J. Gomes,  C. Gonzalez-Espinoza,  
 S. Gulania,  A. Gunina,  M. W. D. Hanson-Heine,  P. H. P. Harbach,  
 A. W. Hauser,  M. F. Herbst,  M. Hernandez Vera,  M. Hodecker,  
 Z. C. Holden,  S. Houck,  Xunkun Huang,  Kerwin Hui,  B. C. Huynh,  
 M. Ivanov,  Hyunjun Ji,  Hanjie Jiang,  B. Kaduk,  S. Kaehler,  
 K. Khistyaev,  Jaehoon Kim,  P. Klunzinger,  Z. Koczor-Benda,  
 Joong Hoon Koh,  D. Kosenkov,  L. Koulias,  T. Kowalczyk,  C. M. Krauter,  
 K. Kue,  A. Kunitsa,  T. Kus,  A. Landau,  K. V. Lawler,  D. Lefrancois,  
 S. Lehtola,  Rain Li,  Yi-Pei Li,  Jiashu Liang,  M. Liebenthal,  
 Hung-Hsuan Lin,  You-Sheng Lin,  Fenglai Liu,  Kuan-Yu Liu,  
 M. Loipersberger,  A. Luenser,  A. Manjanath,  P. Manohar,  E. Mansoor,  
 S. F. Manzer,  Shan-Ping Mao,  A. V. Marenich,  T. Markovich,  S. Mason,  
 S. A. Maurer,  P. F. McLaughlin,  M. F. S. J. Menger,  J.-M. Mewes,  
 S. A. Mewes,  P. Morgante,  J. W. Mullinax,  T. S. Nguyen-Beck,  
 K. J. Oosterbaan,  G. Paran,  Alexander C. Paul,  Suranjan K. Paul,  
 F. Pavosevic,  Zheng Pei,  S. Prager,  E. I. Proynov,  E. Ramos,  B. Rana,  
 A. E. Rask,  A. Rettig,  R. M. Richard,  F. Rob,  E. Rossomme,  T. Scheele,  
 M. Scheurer,  M. Schneider,  N. Sergueev,  S. M. Sharada,  W. Skomorowski,  
 D. W. Small,  C. J. Stein,  Yu-Chuan Su,  E. J. Sundstrom,  Zhen Tao,  
 J. Thirman,  T. Tsuchimochi,  N. M. Tubman,  S. P. Veccham,  O. Vydrov,  
 J. Wenzel,  J. Witte,  A. Yamada,  Kun Yao,  S. Yeganeh,  S. R. Yost,  
 A. Zech,  Igor Ying Zhang,  Xing Zhang,  Yu Zhang,  D. Zuev,  
 A. Aspuru-Guzik,  A. T. Bell,  N. A. Besley,  K. B. Bravaya,  B. R. Brooks,  
 D. Casanova,  Jeng-Da Chai,  S. Coriani,  C. J. Cramer,  
 A. E. DePrince, III,  R. A. DiStasio Jr.,  A. Dreuw,  B. D. Dunietz,  
 T. R. Furlani,  W. A. Goddard III,  S. Grimme,  S. Hammes-Schiffer,  
 T. Head-Gordon,  W. J. Hehre,  Chao-Ping Hsu,  T.-C. Jagau,  Yousung Jung,  
 A. Klamt,  Jing Kong,  D. S. Lambrecht,  WanZhen Liang,  N. J. Mayhall,  
 C. W. McCurdy,  J. B. Neaton,  C. Ochsenfeld,  J. A. Parkhill,  R. Peverati,  
 V. A. Rassolov,  Yihan Shao,  L. V. Slipchenko,  T. Stauch,  R. P. Steele,  
 J. E. Subotnik,  A. J. W. Thom,  A. Tkatchenko,  D. G. Truhlar,  
 T. Van Voorhis,  T. A. Wesolowski,  K. B. Whaley,  H. L. Woodcock III,  
 P. M. Zimmerman,  S. Faraji,  P. M. W. Gill,  M. Head-Gordon,  
 J. M. Herbert,  A. I. Krylov

 Contributors to earlier versions of Q-Chem not listed above: 
 R. D. Adamson,  B. Austin,  R. Baer,  J. Baker,  G. J. O. Beran,  
 K. Brandhorst,  S. T. Brown,  E. F. C. Byrd,  A. K. Chakraborty,  
 G. K. L. Chan,  Chun-Min Chang,  Yunqing Chen,  C.-L. Cheng,  
 Siu Hung Chien,  D. M. Chipman,  D. L. Crittenden,  H. Dachsel,  
 R. J. Doerksen,  A. D. Dutoi,  R. G. Edgar,  J. Fosso-Tande,  
 L. Fusti-Molnar,  D. Ghosh,  A. Ghysels,  A. Golubeva-Zadorozhnaya,  
 J. Gonthier,  M. S. Gordon,  S. R. Gwaltney,  G. Hawkins,  J. E. Herr,  
 A. Heyden,  S. Hirata,  E. G. Hohenstein,  G. Kedziora,  F. J. Keil,  
 C. Kelley,  Jihan Kim,  R. A. King,  R. Z. Khaliullin,  P. P. Korambath,  
 W. Kurlancheek,  A. Laurent,  A. M. Lee,  M. S. Lee,  S. V. Levchenko,  
 Ching Yeh Lin,  D. Liotard,  E. Livshits,  R. C. Lochan,  I. Lotan,  
 L. A. Martinez-Martinez,  P. E. Maslen,  N. Nair,  D. P. O'Neill,  
 D. Neuhauser,  E. Neuscamman,  C. M. Oana,  R. Olivares-Amaya,  R. Olson,  
 T. M. Perrine,  B. Peters,  P. A. Pieniazek,  A. Prociuk,  Y. M. Rhee,  
 J. Ritchie,  M. A. Rohrdanz,  E. Rosta,  N. J. Russ,  H. F. Schaefer III,  
 M. W. Schmidt,  N. E. Schultz,  S. Sharma,  N. Shenvi,  C. D. Sherrill,  
 A. C. Simmonett,  A. Sodt,  T. Stein,  D. Stuck,  K. S. Thanthiriwatte,  
 V. Vanovschi,  L. Vogt,  Tao Wang,  A. Warshel,  M. A. Watson,  
 C. F. Williams,  Q. Wu,  X. Xu,  Jun Yang,  W. Zhang,  Yan Zhao

 Please cite Q-Chem as follows:
 Y. Shao et al., Mol. Phys. 113, 184-215 (2015)
 DOI: 10.1080/00268976.2014.952696

 Q-Chem 5.4.0 for Intel X86 EM64T Linux

 Parts of Q-Chem use Armadillo 9.800.1 (Horizon Scraper).
 http://arma.sourceforge.net/

--------------------------------------------------------------
User input:
--------------------------------------------------------------
$comment
  Q-Force generated input for: CC_H8C3_d91b46644317dee9c2b868166c66a18c~1
$end

$molecule
  0 1
  C     1.277011    -0.260348     0.000002
  C    -0.000007     0.588797     0.000001
  H     2.185361     0.367804    -0.000000
  H     1.319958    -0.913388     0.891074
  H     1.319955    -0.913376    -0.891081
  C    -1.276998    -0.260350    -0.000000
  H    -0.000003     1.254670     0.884376
  H     0.000004     1.254656    -0.884384
  H    -2.185369     0.367787     0.000068
  H    -1.320001    -0.913323    -0.891118
  H    -1.319940    -0.913423     0.891048
$end

$rem
  method = PBE
  basis = 6-31+G(D)
  dft_d = d3_bj
  jobtype = pes_scan
  cm5 = true
  resp_charges = true
  mem_total = 1500
  geom_opt_max_cycles = 100
  max_scf_cycles = 100
  xc_grid = 3
$end

$scan
  tors 3 1 2 6 180.000 -180.000 -15.00
$end

--------------------------------------------------------------
 Adding empirical dispersion correction 
 ----------------------------------------------------------------
 Doing -D3(BJ) with
 s6  =   1.00000
 s8  =   0.78750
 a1  =   0.42890
 a2  =   4.44070
 -D3 energy without 3body term =     -0.0060152768 hartrees
 ----------------------------------------------------------------
             Standard Nuclear Orientation (Angstroms)
    I     Atom           X                Y                Z
 ----------------------------------------------------------------
    1      C       1.2770108871    -0.2603484037     0.0000018417
    2      C      -0.0000068700     0.5887969615     0.0000011666
    3      H       2.1853610667     0.3678033364     0.0000000397
    4      H       1.3199577206    -0.9133887263     0.8910736134
    5      H       1.3199546799    -0.9133761058    -0.8910813866
    6      C      -1.2769981129    -0.2603496732    -0.0000001000
    7      H      -0.0000026594     1.2546696536     0.8843763984
    8      H       0.0000043002     1.2546562695    -0.8843836016
    9      H      -2.1853689333     0.3677875866     0.0000681395
   10      H      -1.3200013201    -0.9133223506    -0.8911183263
   11      H      -1.3199402794    -0.9134229712     0.8910476736
 ----------------------------------------------------------------
 Molecular Point Group                 C1    NOp =  1
 Largest Abelian Subgroup              C1    NOp =  1
 Nuclear Repulsion Energy =          81.96397379 hartrees
 There are       13 alpha and       13 beta electrons
 Requested basis set is 6-31+G(d)
 There are 31 shells and 73 basis functions

 Total QAlloc Memory Limit   1500 MB
 Mega-Array Size       188 MB
 MEM_STATIC part       192 MB
A total of 1 constraints
  
            1
    1   3.0100000
    2   3.0100000
    3   1.0100000
    4   2.0100000
    5   6.0100000
    6 180.0000000
    7-180.0000000
    8 -15.0000000
    9   0.0000000
   10   0.0000000

                       Distance Matrix (Angstroms)
             C (  1)   C (  2)   H (  3)   H (  4)   H (  5)   C (  6)
   C (  2)  1.533565
   H (  3)  1.104389  2.196513
   H (  4)  1.105584  2.189264  1.784485
   H (  5)  1.105585  2.189258  1.784482  1.782155
   C (  6)  2.554009  1.533544  3.518879  2.822171  2.822168
   H (  7)  2.169830  1.107026  2.518823  2.538271  3.097573  2.169821
   H (  8)  2.169821  1.107025  2.518815  3.097571  2.538243  2.169819
   H (  9)  3.518896  2.196509  4.370730  3.837006  3.837033  1.104398
   H ( 10)  2.822223  2.189256  3.837048  3.185215  2.639956  1.105583
   H ( 11)  2.822167  2.189259  3.837010  2.639898  3.185126  1.105584
             H (  7)   H (  8)   H (  9)   H ( 10)
   H (  8)  1.768760
   H (  9)  2.518807  2.518858
   H ( 10)  3.097574  2.538226  1.784465
   H ( 11)  2.538288  3.097576  1.784464  1.782166
 
 A cutoff of  1.0D-11 yielded    495 shell pairs
 There are      2799 function pairs
 Smallest overlap matrix eigenvalue = 2.21E-04

 Scale SEOQF with 1.000000e-01/1.000000e-01/1.000000e-01

 Standard Electronic Orientation quadrupole field applied
 Nucleus-field energy     =     0.0000000015 hartrees
 ================ Generating on-the-fly Promolecule Density  ================
using default PutDataFrgm: nothing
Spawning Job For Fragment 0
Done Job For Fragment 0
using default PutDataFrgm: nothing
Spawning Job For Fragment 1
Done Job For Fragment 1
 Time for running child jobs:  CPU 4.86 s  wall 0.83 s
 ============= Method Specific Promolecule Density Constructed =============
 Guess from superposition of atomic densities
 Warning:  Energy on first SCF cycle will be non-variational
 SAD guess density has 26.000000 electrons

 -----------------------------------------------------------------------
  General SCF calculation program by
  Eric Jon Sundstrom, Paul Horn, Yuezhi Mao, Dmitri Zuev, Alec White,
  David Stuck, Shaama M.S., Shane Yost, Joonho Lee, David Small,
  Daniel Levine, Susi Lehtola, Hugh Burton, Evgeny Epifanovsky,
  Bang C. Huynh
 -----------------------------------------------------------------------
 Exchange:  PBE      Correlation:  PBE
 Using SG-3 standard quadrature grid
 Dispersion:   Grimme D3
 using 32 threads for integral computing
 -------------------------------------------------------
 OpenMP Integral computing Module                
 Release: version 1.0, May 2013, Q-Chem Inc. Pittsburgh 
 -------------------------------------------------------
 A restricted SCF calculation will be
 performed using DIIS
 SCF converges when DIIS error is below 1.0e-08
 ---------------------------------------
  Cycle       Energy         DIIS error
 ---------------------------------------
    1    -119.0709601415      7.60e-02  
    2    -118.8179813209      1.40e-02  
    3    -118.6625661985      2.00e-02  
    4    -118.9640193106      1.16e-03  
    5    -118.9647343887      5.78e-04  
    6    -118.9649289244      1.78e-04  
    7    -118.9649490889      1.93e-05  
    8    -118.9649493901      3.57e-06  
    9    -118.9649494009      1.49e-07  
   10    -118.9649494009      3.13e-08  
   11    -118.9649494009      4.77e-09  Convergence criterion met
 ---------------------------------------
 SCF time:   CPU 64.12s  wall 2.00s 
 SCF   energy in the final basis set =     -118.9649494009
 Total energy in the final basis set =     -118.9649494009
 
 --------------------------------------------------------------
 
                    Orbital Energies (a.u.)
 --------------------------------------------------------------
 
 Alpha MOs
 -- Occupied --
 -9.8985  -9.8893  -9.8893  -0.7049  -0.6111  -0.5218  -0.4051  -0.3867
 -0.3507  -0.3331  -0.2950  -0.2934  -0.2833
 -- Virtual --
  0.0026   0.0205   0.0245   0.0329   0.0581   0.0672   0.0739   0.0746
  0.0836   0.1028   0.1105   0.1391   0.1652   0.1717   0.1724   0.2174
  0.2208   0.2222   0.2471   0.2812   0.3039   0.3170   0.5729   0.5984
  0.6138   0.6241   0.6475   0.6549   0.6830   0.6906   0.7893   0.8816
  0.8983   0.9174   0.9387   0.9624   1.0035   1.0547   1.0641   1.0726
  1.3500   1.3975   1.4211   1.5245   1.6799   1.8252   1.8594   1.9155
  1.9694   2.0364   2.1605   2.1805   2.2549   2.3127   2.3387   2.5192
  2.6164   4.0849   4.2140   4.3898
 --------------------------------------------------------------
 
          Ground-State Mulliken Net Atomic Charges

     Atom                 Charge (a.u.)
  ----------------------------------------
      1 C                    -0.687897
      2 C                    -0.337450
      3 H                     0.213661
      4 H                     0.214849
      5 H                     0.214849
      6 C                    -0.687906
      7 H                     0.213268
      8 H                     0.213268
      9 H                     0.213660
     10 H                     0.214850
     11 H                     0.214849
  ----------------------------------------
  Sum of atomic charges =     0.000000

Performing Hirshfeld population analysis.
Hirshfeld: reading atomic densities from disk.
Hirshfeld: performing integration.
warning:  vdwdata pointer should have been initialzed before dftman
Hirshfeld: integration completed in 10.85 sec.

          Hirshfeld Atomic Charges         

     Atom                 Charge (a.u.)    
  ---------------------------------------- 
      1 C                    -0.114568
      2 C                    -0.070883
      3 H                     0.038427
      4 H                     0.037248
      5 H                     0.037248
      6 C                    -0.114568
      7 H                     0.037225
      8 H                     0.037225
      9 H                     0.038425
     10 H                     0.037248
     11 H                     0.037248
  ---------------------------------------- 
  Sum of atomic charges =     0.000276


          Charge Model 5         

     Atom                 Charge (a.u.)    
  ---------------------------------------- 
      1 C                    -0.260653
      2 C                    -0.181275
      3 H                     0.087742
      4 H                     0.087024
      5 H                     0.087024
      6 C                    -0.260652
      7 H                     0.089639
      8 H                     0.089639
      9 H                     0.087740
     10 H                     0.087024
     11 H                     0.087024
  ---------------------------------------- 
  Sum of atomic charges =     0.000276

  Building new vdw surfaces
         Merz-Kollman RESP Net Atomic Charges

     Atom                 Charge (a.u.)
  ----------------------------------------
      1 C                    -0.363294
      2 C                     0.378972
      3 H                     0.078771
      4 H                     0.078771
      5 H                     0.078771
      6 C                    -0.363294
      7 H                    -0.062506
      8 H                    -0.062506
      9 H                     0.078771
     10 H                     0.078771
     11 H                     0.078771
  ----------------------------------------
  Sum of atomic charges =     0.000000

  Related Dipole Moment =     0.1230 (X -0.0000 Y  0.1230 Z -0.0000)

 -----------------------------------------------------------------
                    Cartesian Multipole Moments
 -----------------------------------------------------------------
    Charge (ESU x 10^10)
                 0.0000
    Dipole Moment (Debye)
         X      -0.0000      Y       0.0903      Z      -0.0000
       Tot       0.0903
    Quadrupole Moments (Debye-Ang)
        XX     -22.6284     XY       0.0001     YY     -22.2620
        XZ      -0.0000     YZ      -0.0000     ZZ     -21.7571
    Octopole Moments (Debye-Ang^2)
       XXX      -0.0002    XXY       1.6065    XYY       0.0001
       YYY       0.4563    XXZ       0.0001    XYZ      -0.0001
       YYZ       0.0001    XZZ      -0.0001    YZZ      -0.5014
       ZZZ      -0.0001
    Hexadecapole Moments (Debye-Ang^3)
      XXXX    -213.0880   XXXY       0.0006   XXYY     -47.7769
      XYYY       0.0001   YYYY     -76.5637   XXXZ      -0.0002
      XXYZ       0.0001   XYYZ      -0.0001   YYYZ      -0.0001
      XXZZ     -44.3473   XYZZ       0.0001   YYZZ     -18.3964
      XZZZ       0.0002   YZZZ       0.0000   ZZZZ     -47.0809
 -----------------------------------------------------------------
 Calculating analytic gradient of the SCF energy
 Gradient of SCF Energy
            1           2           3           4           5           6
    1  -0.0001252  -0.0000084   0.0000060   0.0000141   0.0000140   0.0001423
    2   0.0000840  -0.0001803   0.0000102  -0.0000147  -0.0000146   0.0000832
    3   0.0000015  -0.0000001  -0.0000003  -0.0000026   0.0000017   0.0000001
            7           8           9          10          11
    1   0.0000003   0.0000010  -0.0000107  -0.0000166  -0.0000167
    2   0.0000240   0.0000230   0.0000104  -0.0000124  -0.0000128
    3  -0.0000144   0.0000142   0.0000004   0.0000016  -0.0000018
 Max gradient component =       1.803E-04
 RMS gradient           =       5.108E-05
 Gradient time:  CPU 25.56 s  wall 1.28 s
 Geometry Optimization Parameters
   NAtoms,    NIC,     NZ,  NCons,   NDum,   NFix, NCnnct, MaxDiis
       11      68       0       1       0       0       0       0


** CONSTRAINED OPTIMIZATION IN DELOCALIZED INTERNAL COORDINATES **
   Searching for a Minimum

   Optimization Cycle:   1

                       Coordinates (Angstroms)
     ATOM                X               Y               Z
      1  C         1.2770108871   -0.2603484037    0.0000018417
      2  C        -0.0000068700    0.5887969615    0.0000011666
      3  H         2.1853610667    0.3678033364    0.0000000397
      4  H         1.3199577206   -0.9133887263    0.8910736134
      5  H         1.3199546799   -0.9133761058   -0.8910813866
      6  C        -1.2769981129   -0.2603496732   -0.0000001000
      7  H        -0.0000026594    1.2546696536    0.8843763984
      8  H         0.0000043002    1.2546562695   -0.8843836016
      9  H        -2.1853689333    0.3677875866    0.0000681395
     10  H        -1.3200013201   -0.9133223506   -0.8911183263
     11  H        -1.3199402794   -0.9134229712    0.8910476736
   Point Group: c1    Number of degrees of freedom:    27


   Energy is   -118.964949401

              Constraints and their Current Values
                                        Value     Constraint
   Dihedral:        3   1   2   6      180.000      180.000

 Attempting to generate delocalized internal coordinates
 Initial Hessian constructed with Jon Baker's OPTIMIZE code

   Using Lagrange Multiplier Algorithm


 28 Hessian modes will be used to form the next step
  Hessian Eigenvalues:
    -0.977753    0.045000    0.054183    0.074016    0.078173    0.082228
     0.082882    0.082884    0.103908    0.127915    0.160000    0.160000
     0.160000    0.160000    0.160000    0.160000    0.219194    0.290966
     0.290986    0.329170    0.329170    0.330719    0.330721    0.330721
     0.330722    0.332004    0.332014    1.022753

 Minimum search - taking P-RFO step
 Searching for Lamda that maximizes along the constraint modes only
 Value Taken    Lamda =   0.00000000
 Searching for Lamda that minimizes along all other modes
 Value Taken    Lamda =  -0.00000014
 Step Taken.  Stepsize is  0.000838

                             Maximum     Tolerance    Cnvgd?
         Gradient            0.000116       0.000300     YES
         Displacement        0.000431       0.001200     YES
         Energy change     *********       0.000001      NO


                       Distance Matrix (Angstroms)
             C (  1)   C (  2)   H (  3)   H (  4)   H (  5)   C (  6)
   C (  2)  1.533565
   H (  3)  1.104389  2.196513
   H (  4)  1.105584  2.189264  1.784485
   H (  5)  1.105585  2.189258  1.784482  1.782155
   C (  6)  2.554009  1.533544  3.518879  2.822171  2.822168
   H (  7)  2.169830  1.107026  2.518823  2.538271  3.097573  2.169821
   H (  8)  2.169821  1.107025  2.518815  3.097571  2.538243  2.169819
   H (  9)  3.518896  2.196509  4.370730  3.837006  3.837033  1.104398
   H ( 10)  2.822223  2.189256  3.837048  3.185215  2.639956  1.105583
   H ( 11)  2.822167  2.189259  3.837010  2.639898  3.185126  1.105584
             H (  7)   H (  8)   H (  9)   H ( 10)
   H (  8)  1.768760
   H (  9)  2.518807  2.518858
   H ( 10)  3.097574  2.538226  1.784465
   H ( 11)  2.538288  3.097576  1.784464  1.782166
 
 Final energy is   -118.964949400893     


 ******************************
 **  OPTIMIZATION CONVERGED  **
 ******************************

                       Coordinates (Angstroms)
     ATOM                X               Y               Z
      1  C         1.2770108871   -0.2603484037    0.0000018417
      2  C        -0.0000068700    0.5887969615    0.0000011666
      3  H         2.1853610667    0.3678033364    0.0000000397
      4  H         1.3199577206   -0.9133887263    0.8910736134
      5  H         1.3199546799   -0.9133761058   -0.8910813866
      6  C        -1.2769981129   -0.2603496732   -0.0000001000
      7  H        -0.0000026594    1.2546696536    0.8843763984
      8  H         0.0000043002    1.2546562695   -0.8843836016
      9  H        -2.1853689333    0.3677875866    0.0000681395
     10  H        -1.3200013201   -0.9133223506   -0.8911183263
     11  H        -1.3199402794   -0.9134229712    0.8910476736

Z-matrix Print:
$molecule
0 1
C 
H  1 1.107025
H  1 1.107026 2 106.046471
C  1 1.533544 2 109.454566 3 117.978871 0
H  4 1.104398 1 111.713920 2 -57.918468 0
H  4 1.105583 1 111.064691 2 62.346788 0
H  4 1.105584 1 111.064875 2 -178.183658 0
C  1 1.533565 2 109.453294 3 -117.977324 0
H  8 1.104389 1 111.713281 2 57.913763 0
H  8 1.105584 1 111.063842 2 178.180990 0
H  8 1.105585 1 111.063237 2 -62.352490 0
$end

PES scan, value:  180.0000 energy: -118.9649494009

                       Distance Matrix (Angstroms)
             C (  1)   C (  2)   H (  3)   H (  4)   H (  5)   C (  6)
   C (  2)  1.533565
   H (  3)  1.104389  2.196513
   H (  4)  1.105584  2.189264  1.784485
   H (  5)  1.105585  2.189258  1.784482  1.782155
   C (  6)  2.554009  1.533544  3.518879  2.822171  2.822168
   H (  7)  2.169830  1.107026  2.518823  2.538271  3.097573  2.169821
   H (  8)  2.169821  1.107025  2.518815  3.097571  2.538243  2.169819
   H (  9)  3.518896  2.196509  4.370730  3.837006  3.837033  1.104398
   H ( 10)  2.822223  2.189256  3.837048  3.185215  2.639956  1.105583
   H ( 11)  2.822167  2.189259  3.837010  2.639898  3.185126  1.105584
             H (  7)   H (  8)   H (  9)   H ( 10)
   H (  8)  1.768760
   H (  9)  2.518807  2.518858
   H ( 10)  3.097574  2.538226  1.784465
   H ( 11)  2.538288  3.097576  1.784464  1.782166
 
 Applying Cartesian multipole field
    Component          Value
    ---------          -----
     (2,0,0)        1.00000E-11
     (0,2,0)        2.00000E-11
     (0,0,2)       -3.00000E-11
 Nucleus-field energy     =     0.0000000015 hartrees
 Guess from superposition of atomic densities
 Warning:  Energy on first SCF cycle will be non-variational
 SAD guess density has 26.000000 electrons

 -----------------------------------------------------------------------
  General SCF calculation program by
  Eric Jon Sundstrom, Paul Horn, Yuezhi Mao, Dmitri Zuev, Alec White,
  David Stuck, Shaama M.S., Shane Yost, Joonho Lee, David Small,
  Daniel Levine, Susi Lehtola, Hugh Burton, Evgeny Epifanovsky,
  Bang C. Huynh
 -----------------------------------------------------------------------
 Exchange:  PBE      Correlation:  PBE
 Using SG-3 standard quadrature grid
 Dispersion:   Grimme D3
 A restricted SCF calculation will be
 performed using DIIS
 SCF converges when DIIS error is below 1.0e-08
 ---------------------------------------
  Cycle       Energy         DIIS error
 ---------------------------------------
    1    -119.0709601401      7.60e-02  
    2    -118.8179813195      1.40e-02  
    3    -118.6625661970      2.00e-02  
    4    -118.9640193091      1.16e-03  
    5    -118.9647343873      5.78e-04  
    6    -118.9649289229      1.78e-04  
    7    -118.9649490874      1.93e-05  
    8    -118.9649493886      3.57e-06  
    9    -118.9649493994      1.49e-07  
   10    -118.9649493994      3.13e-08  
   11    -118.9649493994      4.77e-09  Convergence criterion met
 ---------------------------------------
 SCF time:   CPU 64.99s  wall 2.00s 
 SCF   energy in the final basis set =     -118.9649493994
 Total energy in the final basis set =     -118.9649493994
 
 --------------------------------------------------------------
 
                    Orbital Energies (a.u.)
 --------------------------------------------------------------
 
 Alpha MOs
 -- Occupied --
 -9.8985  -9.8893  -9.8893  -0.7049  -0.6111  -0.5218  -0.4051  -0.3867
 -0.3507  -0.3331  -0.2950  -0.2934  -0.2833
 -- Virtual --
  0.0026   0.0205   0.0245   0.0329   0.0581   0.0672   0.0739   0.0746
  0.0836   0.1028   0.1105   0.1391   0.1652   0.1717   0.1724   0.2174
  0.2208   0.2222   0.2471   0.2812   0.3039   0.3170   0.5729   0.5984
  0.6138   0.6241   0.6475   0.6549   0.6830   0.6906   0.7893   0.8816
  0.8983   0.9174   0.9387   0.9624   1.0035   1.0547   1.0641   1.0726
  1.3500   1.3975   1.4211   1.5245   1.6799   1.8252   1.8594   1.9155
  1.9694   2.0364   2.1605   2.1805   2.2549   2.3127   2.3387   2.5192
  2.6164   4.0849   4.2140   4.3898
 --------------------------------------------------------------
 
          Ground-State Mulliken Net Atomic Charges

     Atom                 Charge (a.u.)
  ----------------------------------------
      1 C                    -0.687897
      2 C                    -0.337450
      3 H                     0.213661
      4 H                     0.214849
      5 H                     0.214849
      6 C                    -0.687906
      7 H                     0.213268
      8 H                     0.213268
      9 H                     0.213660
     10 H                     0.214850
     11 H                     0.214849
  ----------------------------------------
  Sum of atomic charges =     0.000000

Performing Hirshfeld population analysis.
Hirshfeld: reading atomic densities from disk.
Hirshfeld: performing integration.
Hirshfeld: integration completed in 9.86 sec.

          Hirshfeld Atomic Charges         

     Atom                 Charge (a.u.)    
  ---------------------------------------- 
      1 C                    -0.114568
      2 C                    -0.070883
      3 H                     0.038427
      4 H                     0.037248
      5 H                     0.037248
      6 C                    -0.114568
      7 H                     0.037225
      8 H                     0.037225
      9 H                     0.038425
     10 H                     0.037248
     11 H                     0.037248
  ---------------------------------------- 
  Sum of atomic charges =     0.000276


          Charge Model 5         

     Atom                 Charge (a.u.)    
  ---------------------------------------- 
      1 C                    -0.260653
      2 C                    -0.181275
      3 H                     0.087742
      4 H                     0.087024
      5 H                     0.087024
      6 C                    -0.260652
      7 H                     0.089639
      8 H                     0.089639
      9 H                     0.087740
     10 H                     0.087024
     11 H                     0.087024
  ---------------------------------------- 
  Sum of atomic charges =     0.000276

         Merz-Kollman RESP Net Atomic Charges

     Atom                 Charge (a.u.)
  ----------------------------------------
      1 C                    -0.363294
      2 C                     0.378972
      3 H                     0.078771
      4 H                     0.078771
      5 H                     0.078771
      6 C                    -0.363294
      7 H                    -0.062506
      8 H                    -0.062506
      9 H                     0.078771
     10 H                     0.078771
     11 H                     0.078771
  ----------------------------------------
  Sum of atomic charges =     0.000000

  Related Dipole Moment =     0.1230 (X -0.0000 Y  0.1230 Z -0.0000)

 -----------------------------------------------------------------
                    Cartesian Multipole Moments
 -----------------------------------------------------------------
    Charge (ESU x 10^10)
                 0.0000
    Dipole Moment (Debye)
         X      -0.0000      Y       0.0903      Z      -0.0000
       Tot       0.0903
    Quadrupole Moments (Debye-Ang)
        XX     -22.6284     XY       0.0001     YY     -22.2620
        XZ      -0.0000     YZ      -0.0000     ZZ     -21.7571
    Octopole Moments (Debye-Ang^2)
       XXX      -0.0002    XXY       1.6065    XYY       0.0001
       YYY       0.4563    XXZ       0.0001    XYZ      -0.0001
       YYZ       0.0001    XZZ      -0.0001    YZZ      -0.5014
       ZZZ      -0.0001
    Hexadecapole Moments (Debye-Ang^3)
      XXXX    -213.0880   XXXY       0.0006   XXYY     -47.7769
      XYYY       0.0001   YYYY     -76.5637   XXXZ      -0.0002
      XXYZ       0.0001   XYYZ      -0.0001   YYYZ      -0.0001
      XXZZ     -44.3473   XYZZ       0.0001   YYZZ     -18.3964
      XZZZ       0.0002   YZZZ       0.0000   ZZZZ     -47.0809
 -----------------------------------------------------------------
 Calculating analytic gradient of the SCF energy
 Gradient of SCF Energy
            1           2           3           4           5           6
    1  -0.0001252  -0.0000084   0.0000060   0.0000141   0.0000140   0.0001423
    2   0.0000840  -0.0001803   0.0000102  -0.0000147  -0.0000146   0.0000832
    3   0.0000015  -0.0000001  -0.0000003  -0.0000026   0.0000017   0.0000001
            7           8           9          10          11
    1   0.0000003   0.0000010  -0.0000107  -0.0000166  -0.0000167
    2   0.0000240   0.0000230   0.0000104  -0.0000124  -0.0000128
    3  -0.0000144   0.0000142   0.0000004   0.0000016  -0.0000018
 Max gradient component =       1.803E-04
 RMS gradient           =       5.108E-05
 Gradient time:  CPU 23.85 s  wall 0.76 s
 Geometry Optimization Parameters
   NAtoms,    NIC,     NZ,  NCons,   NDum,   NFix, NCnnct, MaxDiis
       11      68       0       1       0       0       0       0


** CONSTRAINED OPTIMIZATION IN DELOCALIZED INTERNAL COORDINATES **
   Searching for a Minimum

   Optimization Cycle:   1

                       Coordinates (Angstroms)
     ATOM                X               Y               Z
      1  C         1.2770108871   -0.2603484037    0.0000018417
      2  C        -0.0000068700    0.5887969615    0.0000011666
      3  H         2.1853610667    0.3678033364    0.0000000397
      4  H         1.3199577206   -0.9133887263    0.8910736134
      5  H         1.3199546799   -0.9133761058   -0.8910813866
      6  C        -1.2769981129   -0.2603496732   -0.0000001000
      7  H        -0.0000026594    1.2546696536    0.8843763984
      8  H         0.0000043002    1.2546562695   -0.8843836016
      9  H        -2.1853689333    0.3677875866    0.0000681395
     10  H        -1.3200013201   -0.9133223506   -0.8911183263
     11  H        -1.3199402794   -0.9134229712    0.8910476736
   Point Group: c1    Number of degrees of freedom:    27


   Energy is   -118.964949399

              Constraints and their Current Values
                                        Value     Constraint
   Dihedral:        3   1   2   6      180.000      165.000

 Attempting to generate delocalized internal coordinates
 Initial Hessian constructed with Jon Baker's OPTIMIZE code

   Using Lagrange Multiplier Algorithm


 28 Hessian modes will be used to form the next step
  Hessian Eigenvalues:
    -0.977753    0.045000    0.054183    0.074016    0.078173    0.082228
     0.082882    0.082884    0.103908    0.127915    0.160000    0.160000
     0.160000    0.160000    0.160000    0.160000    0.219194    0.290966
     0.290986    0.329170    0.329170    0.330719    0.330721    0.330721
     0.330722    0.332004    0.332014    1.022753

 Minimum search - taking P-RFO step
 Searching for Lamda that maximizes along the constraint modes only
 Value Taken    Lamda =   0.03461180
 Searching for Lamda that minimizes along all other modes
 Value Taken    Lamda =  -0.03176604
 Step Taken.  Stepsize is  0.253367

                             Maximum     Tolerance    Cnvgd?
         Gradient            0.261797       0.000300      NO
         Displacement        0.253366       0.001200      NO
         Energy change     *********       0.000001      NO


 New Cartesian Coordinates Obtained by Inverse Iteration

 Displacement from previous Coordinates is:  0.475172
 Adding empirical dispersion correction 
 ----------------------------------------------------------------
 Doing -D3(BJ) with
 s6  =   1.00000
 s8  =   0.78750
 a1  =   0.42890
 a2  =   4.44070
 -D3 energy without 3body term =     -0.0060195878 hartrees
 ----------------------------------------------------------------
             Standard Nuclear Orientation (Angstroms)
    I     Atom           X                Y                Z
 ----------------------------------------------------------------
    1      C       1.2774636701    -0.2581778610     0.0507452658
    2      C      -0.0002849915     0.5900902653     0.0643202005
    3      H       2.1715612241     0.3592454960    -0.1467847911
    4      H       1.3924433595    -0.9068718907     0.9385897779
    5      H       1.2451847374    -0.9148319785    -0.8381061711
    6      C      -1.2740677137    -0.2600222681    -0.0202067299
    7      H       0.0360956786     1.2878449773     0.9229886034
    8      H      -0.0348160788     1.2208628993    -0.8447619420
    9      H      -2.1825619453     0.3670937382    -0.0519959468
   10      H      -1.2702016353    -0.8923081395    -0.9271203478
   11      H      -1.3608458255    -0.9334196613     0.8523175396
 ----------------------------------------------------------------
 Molecular Point Group                 C1    NOp =  1
 Largest Abelian Subgroup              C1    NOp =  1
 Nuclear Repulsion Energy =          81.99818701 hartrees
 There are       13 alpha and       13 beta electrons

                       Distance Matrix (Angstroms)
             C (  1)   C (  2)   H (  3)   H (  4)   H (  5)   C (  6)
   C (  2)  1.533749
   H (  3)  1.104373  2.194259
   H (  4)  1.105573  2.223721  1.840684
   H (  5)  1.105574  2.151827  1.720283  1.782806
   C (  6)  2.552518  1.533740  3.503123  2.906542  2.728437
   H (  7)  2.166100  1.107022  2.562601  2.580059  3.068410  2.236524
   H (  8)  2.170616  1.107022  2.469344  3.121645  2.489907  2.099680
   H (  9)  3.517570  2.196722  4.355162  3.922360  3.743094  1.104376
   H ( 10)  2.801596  2.189326  3.744468  3.251271  2.517062  1.105573
   H ( 11)  2.838864  2.189326  3.891926  2.754768  3.106328  1.105574
             H (  7)   H (  8)   H (  9)   H ( 10)
   H (  8)  1.770440
   H (  9)  2.592454  2.443402
   H ( 10)  3.143626  2.449174  1.784471
   H ( 11)  2.624968  3.046205  1.784471  1.782219
 
 Applying Cartesian multipole field
    Component          Value
    ---------          -----
     (2,0,0)        1.00000E-11
     (0,2,0)        2.00000E-11
     (0,0,2)       -3.00000E-11
 Nucleus-field energy     =     0.0000000015 hartrees
 Requested basis set is 6-31+G(d)
 There are 31 shells and 73 basis functions
 A cutoff of  1.0D-11 yielded    495 shell pairs
 There are      2799 function pairs
 Smallest overlap matrix eigenvalue = 2.24E-04
 Guess from superposition of atomic densities
 Warning:  Energy on first SCF cycle will be non-variational
 SAD guess density has 26.000000 electrons

 -----------------------------------------------------------------------
  General SCF calculation program by
  Eric Jon Sundstrom, Paul Horn, Yuezhi Mao, Dmitri Zuev, Alec White,
  David Stuck, Shaama M.S., Shane Yost, Joonho Lee, David Small,
  Daniel Levine, Susi Lehtola, Hugh Burton, Evgeny Epifanovsky,
  Bang C. Huynh
 -----------------------------------------------------------------------
 Exchange:  PBE      Correlation:  PBE
 Using SG-3 standard quadrature grid
 Dispersion:   Grimme D3
 A restricted SCF calculation will be
 performed using DIIS
 SCF converges when DIIS error is below 1.0e-08
 ---------------------------------------
  Cycle       Energy         DIIS error
 ---------------------------------------
    1    -119.0726296378      7.61e-02  
    2    -118.8148023452      1.40e-02  
    3    -118.6587013744      2.00e-02  
    4    -118.9609387240      1.17e-03  
    5    -118.9616576173      5.82e-04  
    6    -118.9618556585      1.79e-04  
    7    -118.9618759120      1.93e-05  
    8    -118.9618762146      3.63e-06  
    9    -118.9618762257      3.19e-07  
   10    -118.9618762257      2.04e-07  
   11    -118.9618762258      4.07e-08  
   12    -118.9618762258      5.87e-09  Convergence criterion met
 ---------------------------------------
 SCF time:   CPU 70.31s  wall 2.00s 
 SCF   energy in the final basis set =     -118.9618762258
 Total energy in the final basis set =     -118.9618762258
 
 --------------------------------------------------------------
 
                    Orbital Energies (a.u.)
 --------------------------------------------------------------
 
 Alpha MOs
 -- Occupied --
 -9.8986  -9.8896  -9.8893  -0.7054  -0.6113  -0.5220  -0.4061  -0.3863
 -0.3518  -0.3340  -0.2946  -0.2923  -0.2814
 -- Virtual --
  0.0025   0.0205   0.0244   0.0327   0.0581   0.0672   0.0735   0.0749
  0.0831   0.1028   0.1117   0.1388   0.1607   0.1668   0.1758   0.2060
  0.2216   0.2352   0.2487   0.2807   0.3046   0.3158   0.5737   0.5981
  0.6136   0.6240   0.6477   0.6572   0.6831   0.6934   0.7918   0.8797
  0.8963   0.9199   0.9377   0.9633   1.0027   1.0534   1.0624   1.0735
  1.3491   1.3921   1.4308   1.5280   1.6790   1.8250   1.8619   1.9021
  1.9818   2.0323   2.1626   2.1693   2.2645   2.3128   2.3382   2.5173
  2.6166   4.0832   4.2145   4.3883
 --------------------------------------------------------------
 
          Ground-State Mulliken Net Atomic Charges

     Atom                 Charge (a.u.)
  ----------------------------------------
      1 C                    -0.690579
      2 C                    -0.334872
      3 H                     0.215037
      4 H                     0.216953
      5 H                     0.213113
      6 C                    -0.690397
      7 H                     0.213352
      8 H                     0.213455
      9 H                     0.213816
     10 H                     0.215426
     11 H                     0.214698
  ----------------------------------------
  Sum of atomic charges =     0.000000

Performing Hirshfeld population analysis.
Hirshfeld: reading atomic densities from disk.
Hirshfeld: performing integration.
Hirshfeld: integration completed in 10.56 sec.

          Hirshfeld Atomic Charges         

     Atom                 Charge (a.u.)    
  ---------------------------------------- 
      1 C                    -0.115393
      2 C                    -0.071240
      3 H                     0.038640
      4 H                     0.041192
      5 H                     0.033783
      6 C                    -0.114328
      7 H                     0.038813
      8 H                     0.036057
      9 H                     0.038352
     10 H                     0.039215
     11 H                     0.035180
  ---------------------------------------- 
  Sum of atomic charges =     0.000272


          Charge Model 5         

     Atom                 Charge (a.u.)    
  ---------------------------------------- 
      1 C                    -0.261515
      2 C                    -0.181695
      3 H                     0.087979
      4 H                     0.090588
      5 H                     0.084037
      6 C                    -0.260593
      7 H                     0.090755
      8 H                     0.089090
      9 H                     0.087668
     10 H                     0.089026
     11 H                     0.084930
  ---------------------------------------- 
  Sum of atomic charges =     0.000272

  Building new vdw surfaces
         Merz-Kollman RESP Net Atomic Charges

     Atom                 Charge (a.u.)
  ----------------------------------------
      1 C                    -0.385961
      2 C                     0.355266
      3 H                     0.086929
      4 H                     0.086929
      5 H                     0.086929
      6 C                    -0.385961
      7 H                    -0.052459
      8 H                    -0.052459
      9 H                     0.086929
     10 H                     0.086929
     11 H                     0.086929
  ----------------------------------------
  Sum of atomic charges =     0.000000

  Related Dipole Moment =     0.1225 (X -0.0089 Y  0.1158 Z -0.0388)

 -----------------------------------------------------------------
                    Cartesian Multipole Moments
 -----------------------------------------------------------------
    Charge (ESU x 10^10)
                 0.0000
    Dipole Moment (Debye)
         X      -0.0018      Y       0.0843      Z      -0.0852
       Tot       0.1198
    Quadrupole Moments (Debye-Ang)
        XX     -22.6744     XY      -0.0294     YY     -22.2916
        XZ      -0.0137     YZ      -0.0961     ZZ     -21.7185
    Octopole Moments (Debye-Ang^2)
       XXX      -0.1832    XXY       1.4937    XYY      -0.0243
       YYY       0.4144    XXZ      -0.9504    XYZ      -0.2014
       YYZ      -0.1591    XZZ       0.0800    YZZ      -0.5155
       ZZZ      -1.1904
    Hexadecapole Moments (Debye-Ang^3)
      XXXX    -213.1215   XXXY      -0.2662   XXYY     -47.7267
      XYYY       0.0206   YYYY     -76.5835   XXXZ      -2.8550
      XXYZ      -0.9348   XYYZ      -0.2404   YYYZ      -0.4995
      XXZZ     -44.1100   XYZZ       0.0131   YYZZ     -18.4271
      XZZZ      -1.4727   YZZZ      -0.6537   ZZZZ     -47.3369
 -----------------------------------------------------------------
 Calculating analytic gradient of the SCF energy
 Gradient of SCF Energy
            1           2           3           4           5           6
    1   0.0012563  -0.0008129  -0.0017749  -0.0017438   0.0017598   0.0012022
    2   0.0007996  -0.0001822  -0.0011005  -0.0044787   0.0054067   0.0004867
    3   0.0164458   0.0085622  -0.0103434  -0.0003360  -0.0010699  -0.0107222
            7           8           9          10          11
    1   0.0065883  -0.0065982   0.0000628  -0.0013528   0.0014133
    2   0.0025734  -0.0035513   0.0000117  -0.0009693   0.0010039
    3  -0.0011255  -0.0009565  -0.0002961  -0.0001752   0.0000167
 Max gradient component =       1.645E-02
 RMS gradient           =       4.753E-03
 Gradient time:  CPU 21.94 s  wall 0.69 s
 Geometry Optimization Parameters
   NAtoms,    NIC,     NZ,  NCons,   NDum,   NFix, NCnnct, MaxDiis
       11      68       0       1       0       0       0       0

 Cartesian Hessian Update
 Hessian updated using BFGS update


** CONSTRAINED OPTIMIZATION IN DELOCALIZED INTERNAL COORDINATES **
   Searching for a Minimum

   Optimization Cycle:   2

                       Coordinates (Angstroms)
     ATOM                X               Y               Z
      1  C         1.2774636701   -0.2581778610    0.0507452658
      2  C        -0.0002849915    0.5900902653    0.0643202005
      3  H         2.1715612241    0.3592454960   -0.1467847911
      4  H         1.3924433595   -0.9068718907    0.9385897779
      5  H         1.2451847374   -0.9148319785   -0.8381061711
      6  C        -1.2740677137   -0.2600222681   -0.0202067299
      7  H         0.0360956786    1.2878449773    0.9229886034
      8  H        -0.0348160788    1.2208628993   -0.8447619420
      9  H        -2.1825619453    0.3670937382   -0.0519959468
     10  H        -1.2702016353   -0.8923081395   -0.9271203478
     11  H        -1.3608458255   -0.9334196613    0.8523175396
   Point Group: c1    Number of degrees of freedom:    27


   Energy is   -118.961876226

              Constraints and their Current Values
                                        Value     Constraint
   Dihedral:        3   1   2   6      165.483      165.000
 Hessian updated using BFGS update

   Using Lagrange Multiplier Algorithm


 24 Hessian modes will be used to form the next step
  Hessian Eigenvalues:
    -0.954453    0.045003    0.060058    0.075996    0.078232    0.082382
     0.082882    0.083064    0.103908    0.142252    0.159999    0.166024
     0.219252    0.290976    0.291129    0.329170    0.329315    0.330720
     0.330721    0.330722    0.332001    0.332006    0.333031    1.050965

 Minimum search - taking P-RFO step
 Searching for Lamda that maximizes along the constraint modes only
 Value Taken    Lamda =   0.00023254
 Searching for Lamda that minimizes along all other modes
 Value Taken    Lamda =  -0.00162391
 Step Taken.  Stepsize is  0.125077

                             Maximum     Tolerance    Cnvgd?
         Gradient            0.013460       0.000300      NO
         Displacement        0.091504       0.001200      NO
         Energy change      0.003073       0.000001      NO


 New Cartesian Coordinates Obtained by Inverse Iteration

 Displacement from previous Coordinates is:  0.117059
 Adding empirical dispersion correction 
 ----------------------------------------------------------------
 Doing -D3(BJ) with
 s6  =   1.00000
 s8  =   0.78750
 a1  =   0.42890
 a2  =   4.44070
 -D3 energy without 3body term =     -0.0060149013 hartrees
 ----------------------------------------------------------------
             Standard Nuclear Orientation (Angstroms)
    I     Atom           X                Y                Z
 ----------------------------------------------------------------
    1      C       1.2795634340    -0.2567164046     0.0414601418
    2      C      -0.0005476854     0.5898785084     0.0663171321
    3      H       2.1751174191     0.3558918727    -0.1656067800
    4      H       1.4033887749    -0.8850880334     0.9393158320
    5      H       1.2399019343    -0.9377561213    -0.8323187758
    6      C      -1.2760348468    -0.2599840017    -0.0159271742
    7      H       0.0071550666     1.2799234127     0.9303849141
    8      H      -0.0088263334     1.2309914327    -0.8376999259
    9      H      -2.1841044505     0.3677284029    -0.0493858128
   10      H      -1.2617391592    -0.8843628920    -0.9271542808
   11      H      -1.3739036740    -0.9410005996     0.8506001879
 ----------------------------------------------------------------
 Molecular Point Group                 C1    NOp =  1
 Largest Abelian Subgroup              C1    NOp =  1
 Nuclear Repulsion Energy =          81.94054815 hartrees
 There are       13 alpha and       13 beta electrons

                       Distance Matrix (Angstroms)
             C (  1)   C (  2)   H (  3)   H (  4)   H (  5)   C (  6)
   C (  2)  1.534935
   H (  3)  1.104619  2.200467
   H (  4)  1.102873  2.215557  1.832062
   H (  5)  1.108548  2.163314  1.729930  1.779941
   C (  6)  2.556245  1.534893  3.508869  2.912483  2.730533
   H (  7)  2.184141  1.105818  2.599056  2.576203  3.089481  2.216619
   H (  8)  2.155492  1.108306  2.446859  3.103213  2.502562  2.122295
   H (  9)  3.520679  2.197876  4.360787  3.926473  3.747145  1.104415
   H ( 10)  2.791124  2.179674  3.732314  3.253708  2.504007  1.104712
   H ( 11)  2.857243  2.201090  3.912820  2.779271  3.108731  1.106450
             H (  7)   H (  8)   H (  9)   H ( 10)
   H (  8)  1.768834
   H (  9)  2.567814  2.469514
   H ( 10)  3.121647  2.460186  1.785768
   H ( 11)  2.616523  3.071049  1.783023  1.782190
 
 Applying Cartesian multipole field
    Component          Value
    ---------          -----
     (2,0,0)        1.00000E-11
     (0,2,0)        2.00000E-11
     (0,0,2)       -3.00000E-11
 Nucleus-field energy     =     0.0000000015 hartrees
 Requested basis set is 6-31+G(d)
 There are 31 shells and 73 basis functions
 A cutoff of  1.0D-11 yielded    495 shell pairs
 There are      2799 function pairs
 Smallest overlap matrix eigenvalue = 2.24E-04
 Guess from superposition of atomic densities
 Warning:  Energy on first SCF cycle will be non-variational
 SAD guess density has 26.000000 electrons

 -----------------------------------------------------------------------
  General SCF calculation program by
  Eric Jon Sundstrom, Paul Horn, Yuezhi Mao, Dmitri Zuev, Alec White,
  David Stuck, Shaama M.S., Shane Yost, Joonho Lee, David Small,
  Daniel Levine, Susi Lehtola, Hugh Burton, Evgeny Epifanovsky,
  Bang C. Huynh
 -----------------------------------------------------------------------
 Exchange:  PBE      Correlation:  PBE
 Using SG-3 standard quadrature grid
 Dispersion:   Grimme D3
 A restricted SCF calculation will be
 performed using DIIS
 SCF converges when DIIS error is below 1.0e-08
 ---------------------------------------
  Cycle       Energy         DIIS error
 ---------------------------------------
    1    -119.0696894068      7.59e-02  
    2    -118.8162402450      1.40e-02  
    3    -118.6610711960      2.00e-02  
    4    -118.9619677434      1.16e-03  
    5    -118.9626846642      5.82e-04  
    6    -118.9628824726      1.78e-04  
    7    -118.9629025296      1.92e-05  
    8    -118.9629028288      3.60e-06  
    9    -118.9629028397      2.67e-07  
   10    -118.9629028398      1.77e-07  
   11    -118.9629028398      3.85e-08  
   12    -118.9629028398      5.63e-09  Convergence criterion met
 ---------------------------------------
 SCF time:   CPU 69.89s  wall 2.00s 
 SCF   energy in the final basis set =     -118.9629028398
 Total energy in the final basis set =     -118.9629028398
 
 --------------------------------------------------------------
 
                    Orbital Energies (a.u.)
 --------------------------------------------------------------
 
 Alpha MOs
 -- Occupied --
 -9.8989  -9.8896  -9.8895  -0.7049  -0.6111  -0.5222  -0.4057  -0.3863
 -0.3510  -0.3335  -0.2948  -0.2924  -0.2827
 -- Virtual --
  0.0025   0.0205   0.0244   0.0328   0.0580   0.0673   0.0736   0.0750
  0.0830   0.1030   0.1116   0.1387   0.1599   0.1679   0.1756   0.2077
  0.2213   0.2335   0.2486   0.2802   0.3048   0.3164   0.5734   0.5986
  0.6128   0.6258   0.6475   0.6546   0.6823   0.6947   0.7899   0.8803
  0.8970   0.9190   0.9365   0.9633   1.0031   1.0537   1.0620   1.0735
  1.3465   1.3978   1.4252   1.5301   1.6793   1.8270   1.8582   1.9089
  1.9736   2.0289   2.1636   2.1706   2.2651   2.3113   2.3368   2.5178
  2.6151   4.0820   4.2145   4.3896
 --------------------------------------------------------------
 
          Ground-State Mulliken Net Atomic Charges

     Atom                 Charge (a.u.)
  ----------------------------------------
      1 C                    -0.690287
      2 C                    -0.336722
      3 H                     0.214800
      4 H                     0.217585
      5 H                     0.212287
      6 C                    -0.688217
      7 H                     0.213603
      8 H                     0.213277
      9 H                     0.213751
     10 H                     0.214695
     11 H                     0.215227
  ----------------------------------------
  Sum of atomic charges =     0.000000

Performing Hirshfeld population analysis.
Hirshfeld: reading atomic densities from disk.
Hirshfeld: performing integration.
Hirshfeld: integration completed in 10.61 sec.

          Hirshfeld Atomic Charges         

     Atom                 Charge (a.u.)    
  ---------------------------------------- 
      1 C                    -0.115070
      2 C                    -0.070931
      3 H                     0.038738
      4 H                     0.039936
      5 H                     0.034603
      6 C                    -0.114414
      7 H                     0.038634
      8 H                     0.036037
      9 H                     0.038404
     10 H                     0.038299
     11 H                     0.036033
  ---------------------------------------- 
  Sum of atomic charges =     0.000269


          Charge Model 5         

     Atom                 Charge (a.u.)    
  ---------------------------------------- 
      1 C                    -0.261104
      2 C                    -0.181269
      3 H                     0.088001
      4 H                     0.089691
      5 H                     0.084420
      6 C                    -0.260587
      7 H                     0.090708
      8 H                     0.088837
      9 H                     0.087706
     10 H                     0.088303
     11 H                     0.085565
  ---------------------------------------- 
  Sum of atomic charges =     0.000269

  Building new vdw surfaces
         Merz-Kollman RESP Net Atomic Charges

     Atom                 Charge (a.u.)
  ----------------------------------------
      1 C                    -0.396367
      2 C                     0.366957
      3 H                     0.089094
      4 H                     0.089094
      5 H                     0.089094
      6 C                    -0.396367
      7 H                    -0.054394
      8 H                    -0.054394
      9 H                     0.089094
     10 H                     0.089094
     11 H                     0.089094
  ----------------------------------------
  Sum of atomic charges =     0.000000

  Related Dipole Moment =     0.1213 (X -0.0078 Y  0.1159 Z -0.0349)

 -----------------------------------------------------------------
                    Cartesian Multipole Moments
 -----------------------------------------------------------------
    Charge (ESU x 10^10)
                 0.0000
    Dipole Moment (Debye)
         X      -0.0022      Y       0.0839      Z      -0.0726
       Tot       0.1110
    Quadrupole Moments (Debye-Ang)
        XX     -22.6505     XY      -0.0340     YY     -22.2865
        XZ      -0.1038     YZ      -0.0893     ZZ     -21.7284
    Octopole Moments (Debye-Ang^2)
       XXX      -0.1546    XXY       1.4669    XYY      -0.0431
       YYY       0.4000    XXZ      -0.8405    XYZ      -0.1995
       YYZ      -0.1860    XZZ       0.0804    YZZ      -0.4997
       ZZZ      -1.0899
    Hexadecapole Moments (Debye-Ang^3)
      XXXX    -213.4347   XXXY      -0.2553   XXYY     -47.8253
      XYYY       0.0144   YYYY     -76.5505   XXXZ      -2.5665
      XXYZ      -1.0231   XYYZ      -0.3305   YYYZ      -0.5817
      XXZZ     -44.1923   XYZZ       0.0152   YYZZ     -18.4236
      XZZZ      -1.0440   YZZZ      -0.7231   ZZZZ     -47.3129
 -----------------------------------------------------------------
 Calculating analytic gradient of the SCF energy
 Gradient of SCF Energy
            1           2           3           4           5           6
    1   0.0017303  -0.0007083  -0.0011057  -0.0022698   0.0021195   0.0002664
    2   0.0016246  -0.0002033  -0.0013259  -0.0027516   0.0029314   0.0002019
    3   0.0137307   0.0090012  -0.0092481  -0.0015417  -0.0020633  -0.0071089
            7           8           9          10          11
    1   0.0029762  -0.0029055  -0.0000666   0.0000284  -0.0000649
    2   0.0021761  -0.0025411  -0.0000678  -0.0000832   0.0000389
    3  -0.0014851  -0.0015743  -0.0000156   0.0001363   0.0001689
 Max gradient component =       1.373E-02
 RMS gradient           =       3.816E-03
 Gradient time:  CPU 22.02 s  wall 0.69 s
 Geometry Optimization Parameters
   NAtoms,    NIC,     NZ,  NCons,   NDum,   NFix, NCnnct, MaxDiis
       11      68       0       1       0       0       0       0

 Cartesian Hessian Update
 Hessian updated using BFGS update


** CONSTRAINED OPTIMIZATION IN DELOCALIZED INTERNAL COORDINATES **
   Searching for a Minimum

   Optimization Cycle:   3

                       Coordinates (Angstroms)
     ATOM                X               Y               Z
      1  C         1.2795634340   -0.2567164046    0.0414601418
      2  C        -0.0005476854    0.5898785084    0.0663171321
      3  H         2.1751174191    0.3558918727   -0.1656067800
      4  H         1.4033887749   -0.8850880334    0.9393158320
      5  H         1.2399019343   -0.9377561213   -0.8323187758
      6  C        -1.2760348468   -0.2599840017   -0.0159271742
      7  H         0.0071550666    1.2799234127    0.9303849141
      8  H        -0.0088263334    1.2309914327   -0.8376999259
      9  H        -2.1841044505    0.3677284029   -0.0493858128
     10  H        -1.2617391592   -0.8843628920   -0.9271542808
     11  H        -1.3739036740   -0.9410005996    0.8506001879
   Point Group: c1    Number of degrees of freedom:    27


   Energy is   -118.962902840

              Constraints and their Current Values
                                        Value     Constraint
   Dihedral:        3   1   2   6      165.000      165.000
 Hessian updated using BFGS update

   Using Lagrange Multiplier Algorithm


 25 Hessian modes will be used to form the next step
  Hessian Eigenvalues:
    -0.944034    0.026519    0.045015    0.073085    0.078153    0.082486
     0.082881    0.083156    0.103903    0.135355    0.159690    0.160000
     0.192825    0.219168    0.290974    0.292980    0.329166    0.329269
     0.330681    0.330721    0.330721    0.331984    0.332005    0.344941
     1.066107

 Minimum search - taking P-RFO step
 Searching for Lamda that maximizes along the constraint modes only
 Value Taken    Lamda =   0.00000006
 Searching for Lamda that minimizes along all other modes
 Value Taken    Lamda =  -0.00159103
 Step Taken.  Stepsize is  0.235357

                             Maximum     Tolerance    Cnvgd?
         Gradient            0.005194       0.000300      NO
         Displacement        0.166727       0.001200      NO
         Energy change     -0.001027       0.000001      NO


 New Cartesian Coordinates Obtained by Inverse Iteration

 Displacement from previous Coordinates is:  0.193378
 Adding empirical dispersion correction 
 ----------------------------------------------------------------
 Doing -D3(BJ) with
 s6  =   1.00000
 s8  =   0.78750
 a1  =   0.42890
 a2  =   4.44070
 -D3 energy without 3body term =     -0.0060106079 hartrees
 ----------------------------------------------------------------
             Standard Nuclear Orientation (Angstroms)
    I     Atom           X                Y                Z
 ----------------------------------------------------------------
    1      C       1.2814671101    -0.2568044129     0.0264302600
    2      C      -0.0004068861     0.5863429753     0.0582947050
    3      H       2.1759592279     0.3558623111    -0.1832939735
    4      H       1.4284571148    -0.8399475794     0.9504671738
    5      H       1.2252404966    -0.9831671342    -0.8104564640
    6      C      -1.2782246179    -0.2594857928    -0.0194170861
    7      H      -0.0251332360     1.2516456592     0.9402288104
    8      H       0.0205100786     1.2559517814    -0.8254043115
    9      H      -2.1838486252     0.3722351509    -0.0386413422
   10      H      -1.2733063417    -0.8732902098    -0.9380876104
   11      H      -1.3707438415    -0.9498371718     0.8398652968
 ----------------------------------------------------------------
 Molecular Point Group                 C1    NOp =  1
 Largest Abelian Subgroup              C1    NOp =  1
 Nuclear Repulsion Energy =          81.92112339 hartrees
 There are       13 alpha and       13 beta electrons

                       Distance Matrix (Angstroms)
             C (  1)   C (  2)   H (  3)   H (  4)   H (  5)   C (  6)
   C (  2)  1.534638
   H (  3)  1.104292  2.201830
   H (  4)  1.102500  2.207245  1.809457
   H (  5)  1.109569  2.172626  1.757896  1.778387
   C (  6)  2.560104  1.534367  3.512392  2.933213  2.723379
   H (  7)  2.194915  1.105010  2.628600  2.547114  3.102051  2.185103
   H (  8)  2.145709  1.108935  2.422484  3.086880  2.542686  2.152412
   H (  9)  3.522547  2.196055  4.362238  3.936556  3.748960  1.104353
   H ( 10)  2.799503  2.177976  3.738711  3.296555  2.504216  1.104869
   H ( 11)  2.859404  2.201937  3.915458  2.803540  3.076330  1.106124
             H (  7)   H (  8)   H (  9)   H ( 10)
   H (  8)  1.766228
   H (  9)  2.528162  2.501829
   H ( 10)  3.098606  2.494059  1.785896
   H ( 11)  2.582105  3.094223  1.783477  1.782265
 
 Applying Cartesian multipole field
    Component          Value
    ---------          -----
     (2,0,0)        1.00000E-11
     (0,2,0)        2.00000E-11
     (0,0,2)       -3.00000E-11
 Nucleus-field energy     =     0.0000000015 hartrees
 Requested basis set is 6-31+G(d)
 There are 31 shells and 73 basis functions
 A cutoff of  1.0D-11 yielded    495 shell pairs
 There are      2799 function pairs
 Smallest overlap matrix eigenvalue = 2.22E-04
 Guess from superposition of atomic densities
 Warning:  Energy on first SCF cycle will be non-variational
 SAD guess density has 26.000000 electrons

 -----------------------------------------------------------------------
  General SCF calculation program by
  Eric Jon Sundstrom, Paul Horn, Yuezhi Mao, Dmitri Zuev, Alec White,
  David Stuck, Shaama M.S., Shane Yost, Joonho Lee, David Small,
  Daniel Levine, Susi Lehtola, Hugh Burton, Evgeny Epifanovsky,
  Bang C. Huynh
 -----------------------------------------------------------------------
 Exchange:  PBE      Correlation:  PBE
 Using SG-3 standard quadrature grid
 Dispersion:   Grimme D3
 A restricted SCF calculation will be
 performed using DIIS
 SCF converges when DIIS error is below 1.0e-08
 ---------------------------------------
  Cycle       Energy         DIIS error
 ---------------------------------------
    1    -119.0696701719      7.59e-02  
    2    -118.8172505123      1.40e-02  
    3    -118.6624263597      2.00e-02  
    4    -118.9629764570      1.17e-03  
    5    -118.9636936372      5.84e-04  
    6    -118.9638931591      1.77e-04  
    7    -118.9639129438      1.92e-05  
    8    -118.9639132417      3.57e-06  
    9    -118.9639132525      2.02e-07  
   10    -118.9639132525      1.38e-07  
   11    -118.9639132525      3.24e-08  
   12    -118.9639132525      3.66e-09  Convergence criterion met
 ---------------------------------------
 SCF time:   CPU 69.50s  wall 2.00s 
 SCF   energy in the final basis set =     -118.9639132525
 Total energy in the final basis set =     -118.9639132525
 
 --------------------------------------------------------------
 
                    Orbital Energies (a.u.)
 --------------------------------------------------------------
 
 Alpha MOs
 -- Occupied --
 -9.8987  -9.8895  -9.8895  -0.7047  -0.6112  -0.5221  -0.4051  -0.3865
 -0.3506  -0.3334  -0.2956  -0.2928  -0.2826
 -- Virtual --
  0.0026   0.0205   0.0245   0.0331   0.0578   0.0673   0.0737   0.0751
  0.0831   0.1031   0.1112   0.1382   0.1616   0.1686   0.1749   0.2088
  0.2214   0.2319   0.2492   0.2806   0.3047   0.3169   0.5732   0.5988
  0.6124   0.6265   0.6470   0.6550   0.6823   0.6949   0.7861   0.8814
  0.8984   0.9164   0.9365   0.9626   1.0032   1.0536   1.0626   1.0730
  1.3400   1.3984   1.4225   1.5311   1.6795   1.8265   1.8595   1.9131
  1.9722   2.0276   2.1649   2.1713   2.2682   2.3111   2.3355   2.5206
  2.6143   4.0816   4.2139   4.3914
 --------------------------------------------------------------
 
          Ground-State Mulliken Net Atomic Charges

     Atom                 Charge (a.u.)
  ----------------------------------------
      1 C                    -0.690220
      2 C                    -0.333273
      3 H                     0.214261
      4 H                     0.218058
      5 H                     0.211478
      6 C                    -0.690724
      7 H                     0.213724
      8 H                     0.212801
      9 H                     0.213697
     10 H                     0.214121
     11 H                     0.216078
  ----------------------------------------
  Sum of atomic charges =     0.000000

Performing Hirshfeld population analysis.
Hirshfeld: reading atomic densities from disk.
Hirshfeld: performing integration.
Hirshfeld: integration completed in 10.56 sec.

          Hirshfeld Atomic Charges         

     Atom                 Charge (a.u.)    
  ---------------------------------------- 
      1 C                    -0.114623
      2 C                    -0.070877
      3 H                     0.038809
      4 H                     0.038226
      5 H                     0.035981
      6 C                    -0.114464
      7 H                     0.038063
      8 H                     0.036210
      9 H                     0.038538
     10 H                     0.037396
     11 H                     0.037010
  ---------------------------------------- 
  Sum of atomic charges =     0.000269


          Charge Model 5         

     Atom                 Charge (a.u.)    
  ---------------------------------------- 
      1 C                    -0.260604
      2 C                    -0.181232
      3 H                     0.088097
      4 H                     0.088059
      5 H                     0.085621
      6 C                    -0.260623
      7 H                     0.090384
      8 H                     0.088756
      9 H                     0.087860
     10 H                     0.087381
     11 H                     0.086569
  ---------------------------------------- 
  Sum of atomic charges =     0.000269

  Building new vdw surfaces
         Merz-Kollman RESP Net Atomic Charges

     Atom                 Charge (a.u.)
  ----------------------------------------
      1 C                    -0.390513
      2 C                     0.381063
      3 H                     0.086443
      4 H                     0.086443
      5 H                     0.086443
      6 C                    -0.390513
      7 H                    -0.059347
      8 H                    -0.059347
      9 H                     0.086443
     10 H                     0.086443
     11 H                     0.086443
  ----------------------------------------
  Sum of atomic charges =     0.000000

  Related Dipole Moment =     0.1161 (X -0.0048 Y  0.1152 Z -0.0140)

 -----------------------------------------------------------------
                    Cartesian Multipole Moments
 -----------------------------------------------------------------
    Charge (ESU x 10^10)
                 0.0000
    Dipole Moment (Debye)
         X      -0.0019      Y       0.0869      Z      -0.0382
       Tot       0.0950
    Quadrupole Moments (Debye-Ang)
        XX     -22.6232     XY      -0.0229     YY     -22.2746
        XZ      -0.1248     YZ      -0.0653     ZZ     -21.7489
    Octopole Moments (Debye-Ang^2)
       XXX      -0.0786    XXY       1.5212    XYY      -0.0548
       YYY       0.4214    XXZ      -0.5048    XYZ      -0.2087
       YYZ      -0.2192    XZZ       0.0598    YZZ      -0.4663
       ZZZ      -0.6359
    Hexadecapole Moments (Debye-Ang^3)
      XXXX    -213.8185   XXXY      -0.1551   XXYY     -47.8767
      XYYY       0.0535   YYYY     -76.3724   XXXZ      -2.1336
      XXYZ      -1.0250   XYYZ      -0.5503   YYYZ      -0.6684
      XXZZ     -44.2705   XYZZ       0.0483   YYZZ     -18.4319
      XZZZ      -0.7536   YZZZ      -0.7505   ZZZZ     -47.2426
 -----------------------------------------------------------------
 Calculating analytic gradient of the SCF energy
 Gradient of SCF Energy
            1           2           3           4           5           6
    1   0.0015362  -0.0003466  -0.0004211  -0.0012795   0.0006897  -0.0003454
    2   0.0027653  -0.0013291  -0.0009436  -0.0009348   0.0000753   0.0002060
    3   0.0068193   0.0069250  -0.0053297  -0.0015681  -0.0017744  -0.0022455
            7           8           9          10          11
    1  -0.0008144   0.0009257  -0.0000025   0.0007216  -0.0006638
    2   0.0010394  -0.0009322   0.0000140   0.0003341  -0.0002945
    3  -0.0015830  -0.0012913  -0.0000099   0.0000968  -0.0000392
 Max gradient component =       6.925E-03
 RMS gradient           =       2.191E-03
 Gradient time:  CPU 21.96 s  wall 0.69 s
 Geometry Optimization Parameters
   NAtoms,    NIC,     NZ,  NCons,   NDum,   NFix, NCnnct, MaxDiis
       11      68       0       1       0       0       0       0

 Cartesian Hessian Update
 Hessian updated using BFGS update


** CONSTRAINED OPTIMIZATION IN DELOCALIZED INTERNAL COORDINATES **
   Searching for a Minimum

   Optimization Cycle:   4

                       Coordinates (Angstroms)
     ATOM                X               Y               Z
      1  C         1.2814671101   -0.2568044129    0.0264302600
      2  C        -0.0004068861    0.5863429753    0.0582947050
      3  H         2.1759592279    0.3558623111   -0.1832939735
      4  H         1.4284571148   -0.8399475794    0.9504671738
      5  H         1.2252404966   -0.9831671342   -0.8104564640
      6  C        -1.2782246179   -0.2594857928   -0.0194170861
      7  H        -0.0251332360    1.2516456592    0.9402288104
      8  H         0.0205100786    1.2559517814   -0.8254043115
      9  H        -2.1838486252    0.3722351509   -0.0386413422
     10  H        -1.2733063417   -0.8732902098   -0.9380876104
     11  H        -1.3707438415   -0.9498371718    0.8398652968
   Point Group: c1    Number of degrees of freedom:    27


   Energy is   -118.963913253

              Constraints and their Current Values
                                        Value     Constraint
   Dihedral:        3   1   2   6      165.001      165.000
 Hessian updated using BFGS update

   Using Lagrange Multiplier Algorithm


 26 Hessian modes will be used to form the next step
  Hessian Eigenvalues:
    -0.927750    0.017048    0.045022    0.073734    0.078234    0.082490
     0.082882    0.083345    0.103903    0.145061    0.159961    0.160000
     0.161007    0.205205    0.219823    0.290997    0.292960    0.329185
     0.329430    0.330721    0.330721    0.330912    0.332000    0.332005
     0.351176    1.093849

 Minimum search - taking P-RFO step
 Searching for Lamda that maximizes along the constraint modes only
 Value Taken    Lamda =   0.00000185
 Searching for Lamda that minimizes along all other modes
 Value Taken    Lamda =  -0.00042242
 Step Taken.  Stepsize is  0.140565

                             Maximum     Tolerance    Cnvgd?
         Gradient            0.003637       0.000300      NO
         Displacement        0.086357       0.001200      NO
         Energy change     -0.001010       0.000001      NO


 New Cartesian Coordinates Obtained by Inverse Iteration

 Displacement from previous Coordinates is:  0.126244
 Adding empirical dispersion correction 
 ----------------------------------------------------------------
 Doing -D3(BJ) with
 s6  =   1.00000
 s8  =   0.78750
 a1  =   0.42890
 a2  =   4.44070
 -D3 energy without 3body term =     -0.0060093150 hartrees
 ----------------------------------------------------------------
             Standard Nuclear Orientation (Angstroms)
    I     Atom           X                Y                Z
 ----------------------------------------------------------------
    1      C       1.2807817623    -0.2589618612     0.0196545891
    2      C      -0.0003289455     0.5863024133     0.0492585226
    3      H       2.1746026653     0.3536668376    -0.1915030728
    4      H       1.4385546872    -0.8095463263     0.9630749494
    5      H       1.2199652306    -1.0126379881    -0.7902920720
    6      C      -1.2784853905    -0.2587949015    -0.0266346577
    7      H      -0.0276187732     1.2327082789     0.9460511764
    8      H       0.0226625003     1.2751800291    -0.8188005929
    9      H      -2.1842664456     0.3729561311    -0.0283101726
   10      H      -1.2881732275    -0.8651970827    -0.9505339604
   11      H      -1.3577235840    -0.9561699533     0.8280207494
 ----------------------------------------------------------------
 Molecular Point Group                 C1    NOp =  1
 Largest Abelian Subgroup              C1    NOp =  1
 Nuclear Repulsion Energy =          81.91336544 hartrees
 There are       13 alpha and       13 beta electrons

                       Distance Matrix (Angstroms)
             C (  1)   C (  2)   H (  3)   H (  4)   H (  5)   C (  6)
   C (  2)  1.535120
   H (  3)  1.104001  2.200548
   H (  4)  1.103665  2.203143  1.796631
   H (  5)  1.108034  2.179581  1.771065  1.778573
   C (  6)  2.559686  1.534156  3.510856  2.943664  2.719137
   H (  7)  2.189795  1.105813  2.629928  2.514112  3.100473  2.176090
   H (  8)  2.153941  1.108426  2.423538  3.086408  2.582336  2.161849
   H (  9)  3.522525  2.195704  4.361966  3.937765  3.753569  1.104333
   H ( 10)  2.812173  2.182883  3.748676  3.331672  2.517573  1.105173
   H ( 11)  2.846272  2.197319  3.902875  2.803375  3.044110  1.105914
             H (  7)   H (  8)   H (  9)   H ( 10)
   H (  8)  1.766079
   H (  9)  2.517873  2.511856
   H ( 10)  3.096327  2.513336  1.785078
   H ( 11)  2.564039  3.097807  1.784111  1.782237
 
 Applying Cartesian multipole field
    Component          Value
    ---------          -----
     (2,0,0)        1.00000E-11
     (0,2,0)        2.00000E-11
     (0,0,2)       -3.00000E-11
 Nucleus-field energy     =     0.0000000015 hartrees
 Requested basis set is 6-31+G(d)
 There are 31 shells and 73 basis functions
 A cutoff of  1.0D-11 yielded    495 shell pairs
 There are      2799 function pairs
 Smallest overlap matrix eigenvalue = 2.21E-04
 Guess from superposition of atomic densities
 Warning:  Energy on first SCF cycle will be non-variational
 SAD guess density has 26.000000 electrons

 -----------------------------------------------------------------------
  General SCF calculation program by
  Eric Jon Sundstrom, Paul Horn, Yuezhi Mao, Dmitri Zuev, Alec White,
  David Stuck, Shaama M.S., Shane Yost, Joonho Lee, David Small,
  Daniel Levine, Susi Lehtola, Hugh Burton, Evgeny Epifanovsky,
  Bang C. Huynh
 -----------------------------------------------------------------------
 Exchange:  PBE      Correlation:  PBE
 Using SG-3 standard quadrature grid
 Dispersion:   Grimme D3
 A restricted SCF calculation will be
 performed using DIIS
 SCF converges when DIIS error is below 1.0e-08
 ---------------------------------------
  Cycle       Energy         DIIS error
 ---------------------------------------
    1    -119.0692303956      7.59e-02  
    2    -118.8175311748      1.40e-02  
    3    -118.6627735933      2.00e-02  
    4    -118.9632615364      1.17e-03  
    5    -118.9639811802      5.82e-04  
    6    -118.9641795724      1.77e-04  
    7    -118.9641994725      1.92e-05  
    8    -118.9641997721      3.57e-06  
    9    -118.9641997829      1.75e-07  
   10    -118.9641997829      1.05e-07  
   11    -118.9641997829      3.34e-08  
   12    -118.9641997829      1.99e-09  Convergence criterion met
 ---------------------------------------
 SCF time:   CPU 69.26s  wall 2.00s 
 SCF   energy in the final basis set =     -118.9641997829
 Total energy in the final basis set =     -118.9641997829
 
 --------------------------------------------------------------
 
                    Orbital Energies (a.u.)
 --------------------------------------------------------------
 
 Alpha MOs
 -- Occupied --
 -9.8987  -9.8895  -9.8894  -0.7046  -0.6112  -0.5221  -0.4047  -0.3866
 -0.3505  -0.3335  -0.2953  -0.2933  -0.2825
 -- Virtual --
  0.0026   0.0205   0.0245   0.0331   0.0578   0.0673   0.0736   0.0750
  0.0831   0.1031   0.1107   0.1378   0.1636   0.1688   0.1747   0.2078
  0.2219   0.2322   0.2491   0.2812   0.3046   0.3169   0.5734   0.5989
  0.6124   0.6268   0.6470   0.6553   0.6822   0.6950   0.7844   0.8821
  0.8979   0.9165   0.9373   0.9617   1.0026   1.0534   1.0637   1.0725
  1.3373   1.3985   1.4216   1.5306   1.6803   1.8256   1.8587   1.9143
  1.9735   2.0284   2.1651   2.1710   2.2686   2.3107   2.3363   2.5206
  2.6146   4.0816   4.2130   4.3929
 --------------------------------------------------------------
 
          Ground-State Mulliken Net Atomic Charges

     Atom                 Charge (a.u.)
  ----------------------------------------
      1 C                    -0.690677
      2 C                    -0.329900
      3 H                     0.214025
      4 H                     0.218270
      5 H                     0.211627
      6 C                    -0.694084
      7 H                     0.213753
      8 H                     0.212615
      9 H                     0.213642
     10 H                     0.214491
     11 H                     0.216238
  ----------------------------------------
  Sum of atomic charges =     0.000000

Performing Hirshfeld population analysis.
Hirshfeld: reading atomic densities from disk.
Hirshfeld: performing integration.
Hirshfeld: integration completed in 11.24 sec.

          Hirshfeld Atomic Charges         

     Atom                 Charge (a.u.)    
  ---------------------------------------- 
      1 C                    -0.114606
      2 C                    -0.070793
      3 H                     0.038660
      4 H                     0.037707
      5 H                     0.036616
      6 C                    -0.114497
      7 H                     0.037810
      8 H                     0.036444
      9 H                     0.038466
     10 H                     0.037284
     11 H                     0.037180
  ---------------------------------------- 
  Sum of atomic charges =     0.000270


          Charge Model 5         

     Atom                 Charge (a.u.)    
  ---------------------------------------- 
      1 C                    -0.260627
      2 C                    -0.181097
      3 H                     0.087991
      4 H                     0.087424
      5 H                     0.086382
      6 C                    -0.260635
      7 H                     0.090151
      8 H                     0.088897
      9 H                     0.087793
     10 H                     0.087173
     11 H                     0.086818
  ---------------------------------------- 
  Sum of atomic charges =     0.000270

  Building new vdw surfaces
         Merz-Kollman RESP Net Atomic Charges

     Atom                 Charge (a.u.)
  ----------------------------------------
      1 C                    -0.384406
      2 C                     0.383570
      3 H                     0.084574
      4 H                     0.084574
      5 H                     0.084574
      6 C                    -0.384406
      7 H                    -0.061101
      8 H                    -0.061101
      9 H                     0.084574
     10 H                     0.084574
     11 H                     0.084574
  ----------------------------------------
  Sum of atomic charges =     0.000000

  Related Dipole Moment =     0.1153 (X -0.0022 Y  0.1152 Z -0.0026)

 -----------------------------------------------------------------
                    Cartesian Multipole Moments
 -----------------------------------------------------------------
    Charge (ESU x 10^10)
                 0.0000
    Dipole Moment (Debye)
         X       0.0001      Y       0.0884      Z      -0.0183
       Tot       0.0902
    Quadrupole Moments (Debye-Ang)
        XX     -22.6194     XY      -0.0149     YY     -22.2648
        XZ      -0.0875     YZ      -0.0479     ZZ     -21.7551
    Octopole Moments (Debye-Ang^2)
       XXX      -0.0338    XXY       1.5427    XYY      -0.0478
       YYY       0.4238    XXZ      -0.3178    XYZ      -0.2013
       YYZ      -0.2299    XZZ       0.0581    YZZ      -0.4446
       ZZZ      -0.2837
    Hexadecapole Moments (Debye-Ang^3)
[...]
       Tot       0.0902
    Quadrupole Moments (Debye-Ang)
        XX     -22.5191     XY       0.2370     YY     -21.8392
        XZ      -0.1225     YZ      -0.0278     ZZ     -22.2848
    Octopole Moments (Debye-Ang^2)
       XXX      -0.4651    XXY       1.0990    XYY       0.0145
       YYY       1.4151    XXZ       0.3403    XYZ      -0.4187
       YYZ      -0.9537    XZZ       0.9203    YZZ       0.5172
       ZZZ      -1.1655
    Hexadecapole Moments (Debye-Ang^3)
      XXXX    -187.8481   XXXY      20.3365   XXYY     -41.6663
      XYYY      21.3536   YYYY     -60.0772   XXXZ     -20.1168
      XXYZ       1.1136   XYYZ      -7.0337   YYYZ       5.4617
      XXZZ     -45.5482   XYZZ       7.6255   YYZZ     -23.4630
      XZZZ     -19.4848   YZZZ       3.3860   ZZZZ     -88.6986
 -----------------------------------------------------------------
 Calculating analytic gradient of the SCF energy
 Gradient of SCF Energy
            1           2           3           4           5           6
    1   0.0001098  -0.0000210  -0.0000390   0.0000480  -0.0000819   0.0000002
    2   0.0003610  -0.0001522  -0.0001366  -0.0000626  -0.0000563   0.0000087
    3   0.0000284  -0.0000339   0.0000061   0.0000213  -0.0000630   0.0000002
            7           8           9          10          11
    1  -0.0000156  -0.0000048   0.0000209   0.0000141  -0.0000307
    2   0.0000155  -0.0000030   0.0000684  -0.0000317  -0.0000112
    3  -0.0000141   0.0000578  -0.0000115  -0.0000251   0.0000338
 Max gradient component =       3.610E-04
 RMS gradient           =       8.203E-05
 Gradient time:  CPU 21.88 s  wall 0.70 s
 Geometry Optimization Parameters
   NAtoms,    NIC,     NZ,  NCons,   NDum,   NFix, NCnnct, MaxDiis
       11      68       0       1       0       0       0       0

 Cartesian Hessian Update
 Hessian updated using BFGS update


** CONSTRAINED OPTIMIZATION IN DELOCALIZED INTERNAL COORDINATES **
   Searching for a Minimum

   Optimization Cycle:   7

                       Coordinates (Angstroms)
     ATOM                X               Y               Z
      1  C         1.2261175217   -0.4175271295    0.1752130589
      2  C        -0.1609573338    0.0920325570    0.5860999433
      3  H         1.8930511086   -0.5358686665    1.0474386719
      4  H         1.1555745855   -1.3995461375   -0.3280182085
      5  H         1.7128051532    0.2810175657   -0.5299320692
      6  C        -1.1068830515    0.2648657359   -0.6088750708
      7  H        -0.6113709930   -0.6094755542    1.3143880128
      8  H        -0.0561626658    1.0582401782    1.1162398510
      9  H        -2.0952744877    0.6454569358   -0.2960606179
     10  H        -0.6904140114    0.9766281905   -1.3452630503
     11  H        -1.2665153463   -0.6963180984   -1.1312450630
   Point Group: c1    Number of degrees of freedom:    27


   Energy is   -118.964945303

              Constraints and their Current Values
                                        Value     Constraint
   Dihedral:        3   1   2   6     -180.000     -180.000
 Hessian updated using BFGS update

 26 Hessian modes will be used to form the next step
  Hessian Eigenvalues:
     0.014861    0.039833    0.061443    0.077859    0.082321    0.082645
     0.082940    0.103910    0.122665    0.157649    0.159998    0.160000
     0.160076    0.160157    0.188776    0.219667    0.289342    0.291023
     0.328376    0.329403    0.330406    0.330779    0.331286    0.332003
     0.332224    0.342384

 Minimum search - taking simple RFO step
 Searching for Lamda that Minimizes Along All modes
 Value Taken    Lamda =  -0.00000101
 Step Taken.  Stepsize is  0.004874

                             Maximum     Tolerance    Cnvgd?
         Gradient           0.000115      0.000300     YES
         Displacement       0.003368      0.001200      NO
         Energy change     -0.000006      0.000001      NO


 New Cartesian Coordinates Obtained by Inverse Iteration

 Displacement from previous Coordinates is:  0.004773
 Adding empirical dispersion correction 
 ----------------------------------------------------------------
 Doing -D3(BJ) with
 s6  =   1.00000
 s8  =   0.78750
 a1  =   0.42890
 a2  =   4.44070
 -D3 energy without 3body term =     -0.0060153448 hartrees
 ----------------------------------------------------------------
             Standard Nuclear Orientation (Angstroms)
    I     Atom           X                Y                Z
 ----------------------------------------------------------------
    1      C       1.2259941071    -0.4179646616     0.1751865065
    2      C      -0.1608053023     0.0924584547     0.5860064195
    3      H       1.8928616511    -0.5359249949     1.0475255277
    4      H       1.1546742947    -1.3996845771    -0.3283486928
    5      H       1.7136569693     0.2806255284    -0.5293173268
    6      C      -1.1069120628     0.2649048739    -0.6088722028
    7      H      -0.6106659783    -0.6092543793     1.3144943449
    8      H      -0.0563601945     1.0588417806     1.1157558823
    9      H      -2.0956254277     0.6444681864    -0.2958335193
   10      H      -0.6910031905     0.9772412662    -1.3450161706
   11      H      -1.2658443868    -0.6962059005    -1.1315953102
 ----------------------------------------------------------------
 Molecular Point Group                 C1    NOp =  1
 Largest Abelian Subgroup              C1    NOp =  1
 Nuclear Repulsion Energy =          81.95943809 hartrees
 There are       13 alpha and       13 beta electrons

                       Distance Matrix (Angstroms)
             C (  1)   C (  2)   H (  3)   H (  4)   H (  5)   C (  6)
   C (  2)  1.533792
   H (  3)  1.104356  2.196682
   H (  4)  1.105626  2.189297  1.784385
   H (  5)  1.105518  2.189284  1.784742  1.782215
   C (  6)  2.554116  1.533816  3.519037  2.822113  2.821735
   H (  7)  2.169777  1.107010  2.518789  2.537743  3.097419  2.170197
   H (  8)  2.170267  1.106996  2.519405  3.097805  2.538670  2.169870
   H (  9)  3.519059  2.196790  4.371038  3.839800  3.833736  1.104362
   H ( 10)  2.816468  2.189246  3.832791  3.176463  2.633064  1.105582
   H ( 11)  2.827429  2.189351  3.840792  2.645562  3.192862  1.105546
             H (  7)   H (  8)   H (  9)   H ( 10)
   H (  8)  1.768982
   H (  9)  2.523902  2.514536
   H ( 10)  3.097809  2.542603  1.784513
   H ( 11)  2.533806  3.097359  1.784500  1.782250
 
 Applying Cartesian multipole field
    Component          Value
    ---------          -----
     (2,0,0)        1.00000E-11
     (0,2,0)        2.00000E-11
     (0,0,2)       -3.00000E-11
 Nucleus-field energy     =     0.0000000003 hartrees
 Requested basis set is 6-31+G(d)
 There are 31 shells and 73 basis functions
 A cutoff of  1.0D-11 yielded    495 shell pairs
 There are      2799 function pairs
 Smallest overlap matrix eigenvalue = 2.21E-04
 Guess from superposition of atomic densities
 Warning:  Energy on first SCF cycle will be non-variational
 SAD guess density has 26.000000 electrons

 -----------------------------------------------------------------------
  General SCF calculation program by
  Eric Jon Sundstrom, Paul Horn, Yuezhi Mao, Dmitri Zuev, Alec White,
  David Stuck, Shaama M.S., Shane Yost, Joonho Lee, David Small,
  Daniel Levine, Susi Lehtola, Hugh Burton, Evgeny Epifanovsky,
  Bang C. Huynh
 -----------------------------------------------------------------------
 Exchange:  PBE      Correlation:  PBE
 Using SG-3 standard quadrature grid
 Dispersion:   Grimme D3
 A restricted SCF calculation will be
 performed using DIIS
 SCF converges when DIIS error is below 1.0e-08
 ---------------------------------------
  Cycle       Energy         DIIS error
 ---------------------------------------
    1    -119.0705980174      7.60e-02  
    2    -118.8180245278      1.40e-02  
    3    -118.6627415282      2.00e-02  
    4    -118.9640166672      1.16e-03  
    5    -118.9647310456      5.78e-04  
    6    -118.9649254827      1.78e-04  
    7    -118.9649456567      1.92e-05  
    8    -118.9649459579      3.56e-06  
    9    -118.9649459686      1.49e-07  
   10    -118.9649459686      3.12e-08  
   11    -118.9649459686      4.51e-09  Convergence criterion met
 ---------------------------------------
 SCF time:   CPU 64.01s  wall 2.00s 
 SCF   energy in the final basis set =     -118.9649459686
 Total energy in the final basis set =     -118.9649459686
 
 --------------------------------------------------------------
 
                    Orbital Energies (a.u.)
 --------------------------------------------------------------
 
 Alpha MOs
 -- Occupied --
 -9.8986  -9.8894  -9.8893  -0.7049  -0.6111  -0.5218  -0.4051  -0.3867
 -0.3507  -0.3331  -0.2950  -0.2934  -0.2833
 -- Virtual --
  0.0026   0.0205   0.0245   0.0329   0.0581   0.0672   0.0739   0.0746
  0.0836   0.1027   0.1105   0.1391   0.1652   0.1717   0.1724   0.2173
  0.2209   0.2221   0.2470   0.2812   0.3039   0.3170   0.5729   0.5985
  0.6138   0.6241   0.6475   0.6548   0.6830   0.6906   0.7894   0.8817
  0.8983   0.9174   0.9387   0.9623   1.0035   1.0547   1.0640   1.0726
  1.3500   1.3974   1.4210   1.5245   1.6800   1.8252   1.8590   1.9155
  1.9694   2.0363   2.1605   2.1805   2.2548   2.3124   2.3387   2.5189
  2.6163   4.0847   4.2140   4.3898
 --------------------------------------------------------------
 
          Ground-State Mulliken Net Atomic Charges

     Atom                 Charge (a.u.)
  ----------------------------------------
      1 C                    -0.687916
      2 C                    -0.337413
      3 H                     0.213666
      4 H                     0.214876
      5 H                     0.214817
      6 C                    -0.687926
      7 H                     0.213306
      8 H                     0.213225
      9 H                     0.213669
     10 H                     0.214664
     11 H                     0.215032
  ----------------------------------------
  Sum of atomic charges =     0.000000

Performing Hirshfeld population analysis.
Hirshfeld: reading atomic densities from disk.
Hirshfeld: performing integration.
Hirshfeld: integration completed in 10.74 sec.

          Hirshfeld Atomic Charges         

     Atom                 Charge (a.u.)    
  ---------------------------------------- 
      1 C                    -0.114569
      2 C                    -0.070876
      3 H                     0.038429
      4 H                     0.037248
      5 H                     0.037252
      6 C                    -0.114578
      7 H                     0.037235
      8 H                     0.037214
      9 H                     0.038428
     10 H                     0.037246
     11 H                     0.037250
  ---------------------------------------- 
  Sum of atomic charges =     0.000279


          Charge Model 5         

     Atom                 Charge (a.u.)    
  ---------------------------------------- 
      1 C                    -0.260659
      2 C                    -0.181269
      3 H                     0.087747
      4 H                     0.087019
      5 H                     0.087036
      6 C                    -0.260668
      7 H                     0.089648
      8 H                     0.089627
      9 H                     0.087745
     10 H                     0.087032
     11 H                     0.087021
  ---------------------------------------- 
  Sum of atomic charges =     0.000279

  Building new vdw surfaces
         Merz-Kollman RESP Net Atomic Charges

     Atom                 Charge (a.u.)
  ----------------------------------------
      1 C                    -0.376454
      2 C                     0.383494
      3 H                     0.082368
      4 H                     0.082368
      5 H                     0.082368
      6 C                    -0.376454
      7 H                    -0.062398
      8 H                    -0.062398
      9 H                     0.082368
     10 H                     0.082368
     11 H                     0.082368
  ----------------------------------------
  Sum of atomic charges =     0.000000

  Related Dipole Moment =     0.1201 (X -0.0312 Y  0.0237 Z  0.1135)

 -----------------------------------------------------------------
                    Cartesian Multipole Moments
 -----------------------------------------------------------------
    Charge (ESU x 10^10)
                 0.0000
    Dipole Moment (Debye)
         X      -0.0235      Y       0.0177      Z       0.0853
       Tot       0.0903
    Quadrupole Moments (Debye-Ang)
        XX     -22.5192     XY       0.2383     YY     -21.8384
        XZ      -0.1219     YZ      -0.0261     ZZ     -22.2858
    Octopole Moments (Debye-Ang^2)
       XXX      -0.4621    XXY       1.1032    XYY       0.0138
       YYY       1.4165    XXZ       0.3417    XYZ      -0.4168
       YYZ      -0.9546    XZZ       0.9196    YZZ       0.5170
       ZZZ      -1.1644
    Hexadecapole Moments (Debye-Ang^3)
      XXXX    -187.8246   XXXY      20.3589   XXYY     -41.6771
      XYYY      21.3655   YYYY     -60.0914   XXXZ     -20.1202
      XXYZ       1.1166   XYYZ      -7.0377   YYYZ       5.4608
      XXZZ     -45.5493   XYZZ       7.6276   YYZZ     -23.4631
      XZZZ     -19.4858   YZZZ       3.3831   ZZZZ     -88.6925
 -----------------------------------------------------------------
 Calculating analytic gradient of the SCF energy
 Gradient of SCF Energy
            1           2           3           4           5           6
    1   0.0000351   0.0000042  -0.0000102   0.0000023  -0.0000233   0.0000100
    2   0.0000982  -0.0000159  -0.0000237  -0.0000284  -0.0000236   0.0000348
    3   0.0000068  -0.0000141   0.0000001  -0.0000036  -0.0000053  -0.0000011
            7           8           9          10          11
    1   0.0000452  -0.0000661   0.0000176   0.0000207  -0.0000355
    2  -0.0000408  -0.0000085   0.0000497  -0.0000341  -0.0000075
    3  -0.0000087   0.0000245  -0.0000054  -0.0000248   0.0000317
 Max gradient component =       9.819E-05
 RMS gradient           =       3.089E-05
 Gradient time:  CPU 28.30 s  wall 0.91 s
 Geometry Optimization Parameters
   NAtoms,    NIC,     NZ,  NCons,   NDum,   NFix, NCnnct, MaxDiis
       11      68       0       1       0       0       0       0

 Cartesian Hessian Update
 Hessian updated using BFGS update


** CONSTRAINED OPTIMIZATION IN DELOCALIZED INTERNAL COORDINATES **
   Searching for a Minimum

   Optimization Cycle:   8

                       Coordinates (Angstroms)
     ATOM                X               Y               Z
      1  C         1.2259941071   -0.4179646616    0.1751865065
      2  C        -0.1608053023    0.0924584547    0.5860064195
      3  H         1.8928616511   -0.5359249949    1.0475255277
      4  H         1.1546742947   -1.3996845771   -0.3283486928
      5  H         1.7136569693    0.2806255284   -0.5293173268
      6  C        -1.1069120628    0.2649048739   -0.6088722028
      7  H        -0.6106659783   -0.6092543793    1.3144943449
      8  H        -0.0563601945    1.0588417806    1.1157558823
      9  H        -2.0956254277    0.6444681864   -0.2958335193
     10  H        -0.6910031905    0.9772412662   -1.3450161706
     11  H        -1.2658443868   -0.6962059005   -1.1315953102
   Point Group: c1    Number of degrees of freedom:    27


   Energy is   -118.964945969

              Constraints and their Current Values
                                        Value     Constraint
   Dihedral:        3   1   2   6     -180.000     -180.000
 Hessian updated using BFGS update

 26 Hessian modes will be used to form the next step
  Hessian Eigenvalues:
     0.014637    0.020502    0.071436    0.077907    0.082371    0.082638
     0.082941    0.103959    0.141927    0.157988    0.159996    0.160000
     0.160143    0.160483    0.186816    0.219834    0.289377    0.291116
     0.328464    0.329427    0.330267    0.330762    0.331229    0.332007
     0.332226    0.340648

 Minimum search - taking simple RFO step
 Searching for Lamda that Minimizes Along All modes
 Value Taken    Lamda =  -0.00000047
 Step Taken.  Stepsize is  0.004672

                             Maximum     Tolerance    Cnvgd?
         Gradient           0.000074      0.000300     YES
         Displacement       0.003413      0.001200      NO
         Energy change     -0.000001      0.000001     YES


                       Distance Matrix (Angstroms)
             C (  1)   C (  2)   H (  3)   H (  4)   H (  5)   C (  6)
   C (  2)  1.533792
   H (  3)  1.104356  2.196682
   H (  4)  1.105626  2.189297  1.784385
   H (  5)  1.105518  2.189284  1.784742  1.782215
   C (  6)  2.554116  1.533816  3.519037  2.822113  2.821735
   H (  7)  2.169777  1.107010  2.518789  2.537743  3.097419  2.170197
   H (  8)  2.170267  1.106996  2.519405  3.097805  2.538670  2.169870
   H (  9)  3.519059  2.196790  4.371038  3.839800  3.833736  1.104362
   H ( 10)  2.816468  2.189246  3.832791  3.176463  2.633064  1.105582
   H ( 11)  2.827429  2.189351  3.840792  2.645562  3.192862  1.105546
             H (  7)   H (  8)   H (  9)   H ( 10)
   H (  8)  1.768982
   H (  9)  2.523902  2.514536
   H ( 10)  3.097809  2.542603  1.784513
   H ( 11)  2.533806  3.097359  1.784500  1.782250
 
 Final energy is   -118.964945968637     


 ******************************
 **  OPTIMIZATION CONVERGED  **
 ******************************

                       Coordinates (Angstroms)
     ATOM                X               Y               Z
      1  C         1.2259941071   -0.4179646616    0.1751865065
      2  C        -0.1608053023    0.0924584547    0.5860064195
      3  H         1.8928616511   -0.5359249949    1.0475255277
      4  H         1.1546742947   -1.3996845771   -0.3283486928
      5  H         1.7136569693    0.2806255284   -0.5293173268
      6  C        -1.1069120628    0.2649048739   -0.6088722028
      7  H        -0.6106659783   -0.6092543793    1.3144943449
      8  H        -0.0563601945    1.0588417806    1.1157558823
      9  H        -2.0956254277    0.6444681864   -0.2958335193
     10  H        -0.6910031905    0.9772412662   -1.3450161706
     11  H        -1.2658443868   -0.6962059005   -1.1315953102

Z-matrix Print:
$molecule
0 1
C 
H  1 1.106996
H  1 1.107010 2 106.068692
C  1 1.533792 2 109.474245 3 -117.978505 0
H  4 1.104356 1 111.712763 2 57.929403 0
H  4 1.105518 1 111.053483 2 -62.367945 0
H  4 1.105626 1 111.048080 2 178.173434 0
C  1 1.533816 2 109.441776 3 117.998260 0
H  8 1.104362 1 111.719293 2 -57.212965 0
H  8 1.105546 1 111.055435 2 -177.485939 0
H  8 1.105582 1 111.044983 2 63.051029 0
$end

PES scan, value: -180.0000 energy: -118.9649459686
------- Summary of potential scan: ------ 
  180.0000      -118.9649494009
  165.0000      -118.9642969100
  150.0000      -118.9626642920
  135.0000      -118.9609326532
  120.0000      -118.9601672561
  105.0000      -118.9608847070
   90.0000      -118.9626137122
   75.0000      -118.9642822302
   60.0000      -118.9649676217
   45.0000      -118.9643252509
   30.0000      -118.9626803617
   15.0000      -118.9609342857
    0.0000      -118.9601765291
  -15.0000      -118.9609335948
  -30.0000      -118.9626814390
  -45.0000      -118.9643323979
  -60.0000      -118.9649747818
  -75.0000      -118.9642876849
  -90.0000      -118.9626227677
 -105.0000      -118.9608956323
 -120.0000      -118.9601743687
 -135.0000      -118.9609338514
 -150.0000      -118.9626611738
 -165.0000      -118.9642954635
 -180.0000      -118.9649459686
----------------------------------------- 

        *************************************************************
        *                                                           *
        *  Thank you very much for using Q-Chem.  Have a nice day.  *
        *                                                           *
        *************************************************************


