Jobname.Temp
FREQ      R                             6-31+G(d)           
Number of atoms                            I               11
Charge                                     I                0
Multiplicity                               I                1
Number of electrons                        I               26
Number of alpha electrons                  I               13
Number of beta electrons                   I               13
Atomic numbers                             I   N=          11
           6           6           1           1           1           6
           1           1           1           1           1
Current cartesian coordinates              R   N=          33
  2.41320143E+00 -4.91987177E-01  3.31108638E-06 -1.40715605E-05  1.11266485E+00
  2.50920068E-06  4.12973325E+00  6.95049455E-01 -7.82403678E-07  2.49435818E+00
 -1.72605347E+00  1.68388631E+00  2.49435414E+00 -1.72602980E+00 -1.68389881E+00
 -2.41317602E+00 -4.91989331E-01 -3.57401801E-07 -6.35801776E-06  2.37098182E+00
  1.67122885E+00  7.21455376E-06  2.37095588E+00 -1.67124296E+00 -4.12974814E+00
  6.95017341E-01  1.27890736E-04 -2.49444044E+00 -1.72593120E+00 -1.68396953E+00
 -2.49432591E+00 -1.72612009E+00  1.68383625E+00
Nuclear charges                            R   N=          11
  6.00000000E+00  6.00000000E+00  1.00000000E+00  1.00000000E+00  1.00000000E+00
  6.00000000E+00  1.00000000E+00  1.00000000E+00  1.00000000E+00  1.00000000E+00
  1.00000000E+00
Number of basis functions                  I               73
Number of contracted shells                I               31
Number of primitive shells                 I               68
Highest angular momentum                   I                2
Largest degree of contraction              I                6
Shell types                                I   N=          31
           0          -1          -1          -1           2           0
          -1          -1          -1           2           0           0
           0           0           0           0           0          -1
          -1          -1           2           0           0           0
           0           0           0           0           0           0
           0
Number of primitives per shell             I   N=          31
           6           3           1           1           1           6
           3           1           1           1           3           1
           3           1           3           1           6           3
           1           1           1           3           1           3
           1           3           1           3           1           3
           1
Shell to atom map                          I   N=          31
           1           1           1           1           1           2
           2           2           2           2           3           3
           4           4           5           5           6           6
           6           6           6           7           7           8
           8           9           9          10          10          11
          11
Primitive exponents                        R   N=          68
  3.04752490E+03  4.57369510E+02  1.03948690E+02  2.92101550E+01  9.28666300E+00
  3.16392700E+00  7.86827240E+00  1.88128850E+00  5.44249300E-01  1.68714400E-01
  4.38000000E-02  8.00000000E-01  3.04752490E+03  4.57369510E+02  1.03948690E+02
  2.92101550E+01  9.28666300E+00  3.16392700E+00  7.86827240E+00  1.88128850E+00
  5.44249300E-01  1.68714400E-01  4.38000000E-02  8.00000000E-01  1.87311370E+01
  2.82539370E+00  6.40121700E-01  1.61277800E-01  1.87311370E+01  2.82539370E+00
  6.40121700E-01  1.61277800E-01  1.87311370E+01  2.82539370E+00  6.40121700E-01
  1.61277800E-01  3.04752490E+03  4.57369510E+02  1.03948690E+02  2.92101550E+01
  9.28666300E+00  3.16392700E+00  7.86827240E+00  1.88128850E+00  5.44249300E-01
  1.68714400E-01  4.38000000E-02  8.00000000E-01  1.87311370E+01  2.82539370E+00
  6.40121700E-01  1.61277800E-01  1.87311370E+01  2.82539370E+00  6.40121700E-01
  1.61277800E-01  1.87311370E+01  2.82539370E+00  6.40121700E-01  1.61277800E-01
  1.87311370E+01  2.82539370E+00  6.40121700E-01  1.61277800E-01  1.87311370E+01
  2.82539370E+00  6.40121700E-01  1.61277800E-01
Contraction coefficients                   R   N=          68
  1.83470016E-03  1.40373012E-02  6.88426061E-02  2.32184421E-01  4.67941342E-01
  3.62312032E-01 -1.19332409E-01 -1.60854212E-01  1.14345648E+00  1.00000000E+00
  1.00000000E+00  1.00000000E+00  1.83470016E-03  1.40373012E-02  6.88426061E-02
  2.32184421E-01  4.67941342E-01  3.62312032E-01 -1.19332409E-01 -1.60854212E-01
  1.14345648E+00  1.00000000E+00  1.00000000E+00  1.00000000E+00  3.34945995E-02
  2.34726947E-01  8.13757318E-01  1.00000000E+00  3.34945995E-02  2.34726947E-01
  8.13757318E-01  1.00000000E+00  3.34945995E-02  2.34726947E-01  8.13757318E-01
  1.00000000E+00  1.83470016E-03  1.40373012E-02  6.88426061E-02  2.32184421E-01
  4.67941342E-01  3.62312032E-01 -1.19332409E-01 -1.60854212E-01  1.14345648E+00
  1.00000000E+00  1.00000000E+00  1.00000000E+00  3.34945995E-02  2.34726947E-01
  8.13757318E-01  1.00000000E+00  3.34945995E-02  2.34726947E-01  8.13757318E-01
  1.00000000E+00  3.34945995E-02  2.34726947E-01  8.13757318E-01  1.00000000E+00
  3.34945995E-02  2.34726947E-01  8.13757318E-01  1.00000000E+00  3.34945995E-02
  2.34726947E-01  8.13757318E-01  1.00000000E+00
P(S=P) Contraction coefficients            R   N=          68
  0.00000000E+00  0.00000000E+00  0.00000000E+00  0.00000000E+00  0.00000000E+00
  0.00000000E+00  6.89990956E-02  3.16423980E-01  7.44308252E-01  1.00000000E+00
  1.00000000E+00  0.00000000E+00  0.00000000E+00  0.00000000E+00  0.00000000E+00
  0.00000000E+00  0.00000000E+00  0.00000000E+00  6.89990956E-02  3.16423980E-01
  7.44308252E-01  1.00000000E+00  1.00000000E+00  0.00000000E+00  0.00000000E+00
  0.00000000E+00  0.00000000E+00  0.00000000E+00  0.00000000E+00  0.00000000E+00
  0.00000000E+00  0.00000000E+00  0.00000000E+00  0.00000000E+00  0.00000000E+00
  0.00000000E+00  0.00000000E+00  0.00000000E+00  0.00000000E+00  0.00000000E+00
  0.00000000E+00  0.00000000E+00  6.89990956E-02  3.16423980E-01  7.44308252E-01
  1.00000000E+00  1.00000000E+00  0.00000000E+00  0.00000000E+00  0.00000000E+00
  0.00000000E+00  0.00000000E+00  0.00000000E+00  0.00000000E+00  0.00000000E+00
  0.00000000E+00  0.00000000E+00  0.00000000E+00  0.00000000E+00  0.00000000E+00
  0.00000000E+00  0.00000000E+00  0.00000000E+00  0.00000000E+00  0.00000000E+00
  0.00000000E+00  0.00000000E+00  0.00000000E+00
Coordinates of each shell                  R   N=          93
  2.41320143E+00 -4.91987177E-01  3.31108638E-06  2.41320143E+00 -4.91987177E-01
  3.31108638E-06  2.41320143E+00 -4.91987177E-01  3.31108638E-06  2.41320143E+00
 -4.91987177E-01  3.31108638E-06  2.41320143E+00 -4.91987177E-01  3.31108638E-06
 -1.40715605E-05  1.11266485E+00  2.50920068E-06 -1.40715605E-05  1.11266485E+00
  2.50920068E-06 -1.40715605E-05  1.11266485E+00  2.50920068E-06 -1.40715605E-05
  1.11266485E+00  2.50920068E-06 -1.40715605E-05  1.11266485E+00  2.50920068E-06
  4.12973325E+00  6.95049455E-01 -7.82403678E-07  4.12973325E+00  6.95049455E-01
 -7.82403678E-07  2.49435818E+00 -1.72605347E+00  1.68388631E+00  2.49435818E+00
 -1.72605347E+00  1.68388631E+00  2.49435414E+00 -1.72602980E+00 -1.68389881E+00
  2.49435414E+00 -1.72602980E+00 -1.68389881E+00 -2.41317602E+00 -4.91989331E-01
 -3.57401801E-07 -2.41317602E+00 -4.91989331E-01 -3.57401801E-07 -2.41317602E+00
 -4.91989331E-01 -3.57401801E-07 -2.41317602E+00 -4.91989331E-01 -3.57401801E-07
 -2.41317602E+00 -4.91989331E-01 -3.57401801E-07 -6.35801776E-06  2.37098182E+00
  1.67122885E+00 -6.35801776E-06  2.37098182E+00  1.67122885E+00  7.21455376E-06
  2.37095588E+00 -1.67124296E+00  7.21455376E-06  2.37095588E+00 -1.67124296E+00
 -4.12974814E+00  6.95017341E-01  1.27890736E-04 -4.12974814E+00  6.95017341E-01
  1.27890736E-04 -2.49444044E+00 -1.72593120E+00 -1.68396953E+00 -2.49444044E+00
 -1.72593120E+00 -1.68396953E+00 -2.49432591E+00 -1.72612009E+00  1.68383625E+00
 -2.49432591E+00 -1.72612009E+00  1.68383625E+00
Overlap Matrix                             R   N=        2701
  1.00000000E+00  2.19058872E-01  1.00000000E+00 -2.90990278E-16  0.00000000E+00
  1.00000000E+00  3.94870635E-17  3.26266448E-17  0.00000000E+00  1.00000000E+00
 -3.08855390E-22 -3.53589044E-22  0.00000000E+00 -6.60362525E-38  1.00000000E+00
  1.84261053E-01  8.12273068E-01  0.00000000E+00 -4.44780245E-17  0.00000000E+00
  1.00000000E+00 -2.38300007E-17  0.00000000E+00  5.69754058E-01  0.00000000E+00
  0.00000000E+00  0.00000000E+00  1.00000000E+00  4.79710122E-18 -4.17014751E-17
  0.00000000E+00  5.69754058E-01  0.00000000E+00  0.00000000E+00  0.00000000E+00
  1.00000000E+00 -5.87418127E-23  0.00000000E+00  0.00000000E+00  0.00000000E+00
  5.69754058E-01  0.00000000E+00  0.00000000E+00  0.00000000E+00  1.00000000E+00
  6.97718343E-02  4.02090587E-01  1.12974096E-16 -6.27440529E-18  1.07740494E-22
  7.27666104E-01  0.00000000E+00  0.00000000E+00 -2.53167833E-22  1.00000000E+00
  6.60990024E-18  8.70164298E-17  1.64678564E-01 -7.45767939E-33  4.57687167E-38
  0.00000000E+00  5.88690339E-01  0.00000000E+00  0.00000000E+00  0.00000000E+00
  1.00000000E+00 -9.97333686E-19 -1.14857432E-17 -7.45767939E-33  1.64678564E-01
 -7.11219729E-39  0.00000000E+00  0.00000000E+00  5.88690339E-01  0.00000000E+00
  2.32352465E-17  0.00000000E+00  1.00000000E+00  7.60905217E-24  8.29853342E-23
  4.57687167E-38 -7.11219729E-39  1.64678564E-01 -1.28993998E-22  0.00000000E+00
  0.00000000E+00  5.88690339E-01 -1.77270863E-22  0.00000000E+00 -4.11893221E-39
  1.00000000E+00  7.91027073E-02  7.10235064E-01 -2.42049710E-17 -3.97419373E-17
 -7.69455304E-24  6.29936196E-01 -6.89436245E-16  2.87265102E-17  0.00000000E+00
  3.23540475E-01  0.00000000E+00  0.00000000E+00  0.00000000E+00  1.00000000E+00
  7.91027073E-02  7.10235064E-01 -8.06832365E-18 -1.19225812E-16 -7.69455304E-24
  6.29936196E-01 -2.29812082E-16  8.61795306E-17  0.00000000E+00  3.23540475E-01
  0.00000000E+00  0.00000000E+00  0.00000000E+00  3.33333333E-01  1.00000000E+00
  7.91027073E-02  7.10235064E-01 -8.06832365E-18 -3.97419373E-17 -2.30836591E-23
  6.29936196E-01 -2.29812082E-16  2.87265102E-17  0.00000000E+00  3.23540475E-01
  0.00000000E+00  0.00000000E+00  0.00000000E+00  3.33333333E-01  3.33333333E-01
  1.00000000E+00 -2.05821708E-32  4.14602616E-33 -6.88350545E-17 -1.39747465E-17
  5.69583011E-54 -5.21114788E-32  4.97557752E-17 -3.98046202E-16  0.00000000E+00
  0.00000000E+00  0.00000000E+00  0.00000000E+00  0.00000000E+00  0.00000000E+00
  0.00000000E+00  0.00000000E+00  1.00000000E+00  1.57233345E-37 -3.16316693E-38
 -1.33273568E-23  5.69583011E-54 -1.39747465E-17  0.00000000E+00  0.00000000E+00
  0.00000000E+00 -3.98046202E-16  0.00000000E+00  0.00000000E+00  0.00000000E+00
  0.00000000E+00  0.00000000E+00  0.00000000E+00  0.00000000E+00  0.00000000E+00
  1.00000000E+00 -2.00304486E-38  3.95395867E-39  5.69583011E-54 -1.33273568E-23
 -6.88350545E-17  0.00000000E+00  0.00000000E+00  0.00000000E+00  4.97557752E-17
  0.00000000E+00  0.00000000E+00  0.00000000E+00  0.00000000E+00  0.00000000E+00
  0.00000000E+00  0.00000000E+00  0.00000000E+00  0.00000000E+00  1.00000000E+00
  2.23559862E-07  7.65930699E-03 -1.57825908E-02  1.04945316E-02 -5.24438607E-09
  4.69948399E-02 -8.98150216E-02  5.97219173E-02 -2.98445708E-08  4.84687686E-02
 -4.84862455E-02  3.22406151E-02 -1.61114606E-08  1.28815758E-02  5.87501623E-03
  3.21643458E-04 -1.44654747E-02  7.22876800E-09 -4.80672249E-09  1.00000000E+00
  7.65930699E-03  1.23618296E-01 -1.57536532E-01  1.04752897E-01 -5.23477041E-08
  2.81391158E-01 -4.18416592E-01  2.78223405E-01 -1.39035357E-07  2.86538554E-01
 -2.66588822E-01  1.77266512E-01 -8.85846136E-08  1.71347627E-01  1.03592693E-01
  4.98903860E-02 -1.39884245E-01  6.99037379E-08 -4.64820381E-08  2.19058872E-01
  1.00000000E+00  1.57825908E-02  1.57536532E-01 -1.57690232E-01  1.48263603E-01
 -7.40911177E-08  1.86525509E-01 -1.00274491E-01  1.91803811E-01 -9.58492741E-08
  5.90620795E-02  6.14311026E-02  3.69125170E-02 -1.84461296E-08  1.73471170E-01
  1.61745810E-01  7.11320115E-02 -1.76948635E-01  8.84257624E-08 -7.84307844E-08
  1.55106360E-21 -9.64348432E-22  1.00000000E+00 -1.04945316E-02 -1.04752897E-01
  1.48263603E-01 -3.33054331E-02  4.92664092E-08 -1.24028930E-01  1.91803811E-01
  6.06380852E-02  6.37343545E-08 -3.92729475E-02  3.69125170E-02  9.23986218E-02
  1.22656345E-08 -1.83571694E-01 -3.93286672E-02 -4.72987706E-02  6.80935531E-02
 -7.84307844E-08  2.26267592E-08 -8.05289961E-17 -5.48759137E-17 -2.20718644E-37
  1.00000000E+00  5.24438607E-09  5.23477041E-08 -7.40911177E-08  4.92664092E-08
  6.52814903E-02  6.19804311E-08 -9.58492741E-08  6.37343545E-08  1.88176788E-01
  1.96256971E-08 -1.84461296E-08  1.22656345E-08  1.16943361E-01  9.17354744E-08
  5.37464022E-08 -1.04564541E-08 -7.84307844E-08 -8.88541494E-02  5.90829916E-02
 -4.39580421E-23  1.78239592E-22 -1.57095899E-42  9.84438842E-38  1.00000000E+00
  4.69948399E-02  2.81391158E-01 -1.86525509E-01  1.24028930E-01 -6.19804311E-08
  4.92394332E-01 -4.88073500E-01  3.24541315E-01 -1.62181602E-07  5.43377083E-01
 -4.35740838E-01  2.89743050E-01 -1.44792019E-07  2.62378545E-01  2.25058133E-01
  1.95478116E-01 -7.70502924E-02  3.85040034E-08 -2.56029879E-08  1.84261053E-01
  8.12273068E-01 -1.35736159E-21  1.91107787E-16  1.49801560E-22  1.00000000E+00
  8.98150216E-02  4.18416592E-01 -1.00274491E-01  1.91803811E-01 -9.58492741E-08
  4.88073500E-01  8.60374978E-03  3.21693417E-01 -1.60758435E-07  2.22018540E-01
  2.61558951E-01  1.18386165E-01 -5.91605970E-08  2.94575511E-01  3.68460657E-01
  3.20032846E-01 -4.84127859E-02  2.41931083E-08 -4.19166976E-08  1.89835020E-23
 -1.27262802E-21  5.69754058E-01 -2.65959039E-37  0.00000000E+00  1.39167034E-21
  1.00000000E+00 -5.97219173E-02 -2.78223405E-01  1.91803811E-01  6.06380852E-02
  6.37343545E-08 -3.24541315E-01  3.21693417E-01  2.78486377E-01  1.06895281E-07
 -1.47629791E-01  1.18386165E-01  3.60878264E-01  3.93384561E-08 -2.85633730E-01
 -1.55247878E-01 -2.12803770E-01 -3.30213343E-02 -4.19166976E-08 -1.09726361E-08
 -3.32852256E-17  1.63464077E-16 -2.65959039E-37  5.69754058E-01  0.00000000E+00
  0.00000000E+00  0.00000000E+00  1.00000000E+00  2.98445708E-08  1.39035357E-07
 -9.58492741E-08  6.37343545E-08  1.88176788E-01  1.62181602E-07 -1.60758435E-07
  1.06895281E-07  4.92394332E-01  7.37743857E-08 -5.91605970E-08  3.93384561E-08
  4.39598378E-01  1.42738486E-07  1.22435534E-07  6.14892952E-08 -4.19166976E-08
 -1.16900763E-01  7.77324058E-02 -5.93238788E-23 -2.28048784E-23  0.00000000E+00
  0.00000000E+00  5.69754058E-01  0.00000000E+00  0.00000000E+00  0.00000000E+00
  1.00000000E+00  4.84687686E-02  2.86538554E-01 -5.90620795E-02  3.92729475E-02
 -1.96256971E-08  5.43377083E-01 -2.22018540E-01  1.47629791E-01 -7.37743857E-08
  8.31996099E-01 -4.20198456E-01  2.79408243E-01 -1.39627451E-07  2.34322892E-01
  2.30950700E-01  2.28277913E-01 -6.96209897E-03  3.47913906E-09 -2.31343100E-09
  6.97718343E-02  4.02090587E-01 -4.30961976E-22  9.27898290E-17  1.67611075E-22
  7.27666104E-01  1.01267133E-21  0.00000000E+00  2.53167833E-22  1.00000000E+00
  4.84862455E-02  2.66588822E-01  6.14311026E-02  3.69125170E-02 -1.84461296E-08
  4.35740838E-01  2.61558951E-01  1.18386165E-01 -5.91605970E-08  4.20198456E-01
  6.19775462E-01  1.41114739E-01 -7.05186472E-08  2.00464629E-01  2.21173406E-01
  2.18613771E-01  7.11764963E-03 -3.55687171E-09 -2.21549194E-09 -5.51906726E-23
 -3.31941337E-22  1.64678564E-01 -6.57957323E-38 -1.32140561E-43  5.15975993E-22
  5.88690339E-01  0.00000000E+00  1.79517121E-43  0.00000000E+00  1.00000000E+00
 -3.22406151E-02 -1.77266512E-01  3.69125170E-02  9.23986218E-02  1.22656345E-08
 -2.89743050E-01  1.18386165E-01  3.60878264E-01  3.93384561E-08 -2.79408243E-01
  1.41114739E-01  7.38162767E-01  4.68909181E-08 -1.49215214E-01 -1.31150268E-01
 -1.45365812E-01 -1.62976793E-02 -2.21549194E-09 -5.41554446E-09  2.20188327E-18
  4.04394553E-17 -6.57957323E-38  1.64678564E-01  1.64489331E-38  0.00000000E+00
  0.00000000E+00  5.88690339E-01  0.00000000E+00  0.00000000E+00  0.00000000E+00
  1.00000000E+00  1.61114606E-08  8.85846136E-08 -1.84461296E-08  1.22656345E-08
  1.16943361E-01  1.44792019E-07 -5.91605970E-08  3.93384561E-08  4.39598378E-01
  1.39627451E-07 -7.05186472E-08  4.68909181E-08  8.31996099E-01  7.45666618E-08
  7.34935566E-08  6.46886070E-08 -2.21549194E-09 -2.07310962E-02  1.37850083E-02
  4.19294652E-24  7.83414020E-23 -1.32140561E-43  1.64489331E-38  1.64678564E-01
  1.28993998E-22  1.79517121E-43  0.00000000E+00  5.88690339E-01  0.00000000E+00
  0.00000000E+00  0.00000000E+00  1.00000000E+00  1.28815758E-02  1.71347627E-01
 -1.73471170E-01  1.83571694E-01 -9.17354744E-08  2.62378545E-01 -2.94575511E-01
  2.85633730E-01 -1.42738486E-07  2.34322892E-01 -2.00464629E-01  1.49215214E-01
 -7.45666618E-08  1.78268125E-01  2.00608307E-01  6.55598448E-02 -2.27448718E-01
  1.13661946E-07 -1.16891213E-07  7.91027073E-02  7.10235064E-01 -7.46163533E-21
 -4.03416183E-18  3.10901472E-22  6.29936196E-01  0.00000000E+00 -1.14906041E-16
  0.00000000E+00  3.23540475E-01  0.00000000E+00  0.00000000E+00  5.73542993E-23
  1.00000000E+00  5.87501623E-03  1.03592693E-01 -1.61745810E-01  3.93286672E-02
 -5.37464022E-08  2.25058133E-01 -3.68460657E-01  1.55247878E-01 -1.22435534E-07
  2.30950700E-01 -2.21173406E-01  1.31150268E-01 -7.34935566E-08  2.00608307E-01
  3.61860041E-02  3.54501332E-02 -6.58885909E-02  9.50554578E-08 -2.18940739E-08
  7.91027073E-02  7.10235064E-01 -2.48721178E-21 -1.21024855E-17  3.10901472E-22
  6.29936196E-01  0.00000000E+00 -3.44718122E-16  0.00000000E+00  3.23540475E-01
  0.00000000E+00  0.00000000E+00  5.73542993E-23  3.33333333E-01  1.00000000E+00
  3.21643458E-04  4.98903860E-02 -7.11320115E-02  4.72987706E-02  1.04564541E-08
  1.95478116E-01 -3.20032846E-01  2.12803770E-01 -6.14892952E-08  2.28277913E-01
 -2.18613771E-01  1.45365812E-01 -6.46886070E-08  6.55598448E-02  3.54501332E-02
  3.47558673E-02 -6.21633580E-02 -3.10646212E-08  2.06562188E-08  7.91027073E-02
  7.10235064E-01 -2.48721178E-21 -4.03416183E-18  9.32704416E-22  6.29936196E-01
  0.00000000E+00 -1.14906041E-16  0.00000000E+00  3.23540475E-01  0.00000000E+00
  0.00000000E+00  1.72062898E-22  3.33333333E-01  3.33333333E-01  1.00000000E+00
 -1.44654747E-02 -1.39884245E-01  1.76948635E-01 -6.80935531E-02  7.84307844E-08
 -7.70502924E-02  4.84127859E-02  3.30213343E-02  4.19166976E-08 -6.96209897E-03
 -7.11764963E-03  1.62976793E-02  2.21549194E-09 -2.27448718E-01 -6.58885909E-02
 -6.21633580E-02  1.34788522E-01 -1.30906279E-07  5.70298781E-08 -4.20564878E-40
  0.00000000E+00 -6.98737325E-18 -4.30797716E-21  0.00000000E+00  0.00000000E+00
 -1.99023101E-16  0.00000000E+00  0.00000000E+00  0.00000000E+00  0.00000000E+00
  0.00000000E+00  0.00000000E+00  0.00000000E+00  0.00000000E+00  0.00000000E+00
  1.00000000E+00  7.22876800E-09  6.99037379E-08 -8.84257624E-08  7.84307844E-08
  8.88541494E-02  3.85040034E-08 -2.41931083E-08  4.19166976E-08  1.16900763E-01
  3.47913906E-09  3.55687171E-09  2.21549194E-09  2.07310962E-02  1.13661946E-07
  9.50554578E-08 -3.10646212E-08 -1.30906279E-07 -1.27167800E-01  1.07670094E-01
 -5.99044571E-43 -5.10730021E-42  5.38497146E-22  0.00000000E+00 -4.30797716E-21
  0.00000000E+00  0.00000000E+00  0.00000000E+00  0.00000000E+00  0.00000000E+00
  9.93405604E-23  0.00000000E+00  0.00000000E+00 -3.97659363E-42 -1.32553121E-42
 -3.97659363E-42  0.00000000E+00  1.00000000E+00 -4.80672249E-09 -4.64820381E-08
  7.84307844E-08 -2.26267592E-08 -5.90829916E-02 -2.56029879E-08  4.19166976E-08
  1.09726361E-08 -7.77324058E-02 -2.31343100E-09  2.21549194E-09  5.41554446E-09
 -1.37850083E-02 -1.16891213E-07 -2.18940739E-08  2.06562188E-08  5.70298781E-08
  1.07670094E-01 -3.68386651E-02  1.05141220E-40  0.00000000E+00  0.00000000E+00
  5.38497146E-22 -6.98737325E-18  0.00000000E+00  0.00000000E+00  0.00000000E+00
 -1.99023101E-16  0.00000000E+00  0.00000000E+00  9.93405604E-23  0.00000000E+00
  0.00000000E+00  0.00000000E+00  0.00000000E+00 -2.29588740E-42  0.00000000E+00
  1.00000000E+00  3.07203639E-02  2.64711760E-01  2.96289209E-01  2.04893461E-01
 -7.06574103E-07  3.71294196E-01  4.22620549E-01  2.92255621E-01 -1.00784209E-06
  2.57682371E-01  1.74149128E-01  1.20429690E-01 -4.15301199E-07  3.37431819E-01
  2.20274272E-01  1.12898962E-01  2.68938385E-01 -9.27432712E-07 -6.41349371E-07
  2.48110666E-05  5.86484568E-03  1.28765079E-02 -1.30212034E-03 -1.02631872E-08
  6.46198860E-02  1.76047472E-01 -1.78025746E-02 -1.40318179E-07  1.51619136E-01
  2.46495247E-01 -2.49265154E-02 -1.96468395E-07  1.21658425E-02  1.24328662E-03
  1.13043851E-03 -1.93286662E-03 -1.52346687E-08  1.54058631E-09  1.00000000E+00
  9.05971182E-02  4.69632183E-01  2.18311218E-01  1.50969187E-01 -5.20616507E-07
  6.98009998E-01  4.81050300E-01  3.32661662E-01 -1.14718212E-06  6.38700549E-01
  3.60887749E-01  2.49565416E-01 -8.60625125E-07  4.01186293E-01  3.72397920E-01
  3.46013274E-01  6.60845036E-02 -2.27892090E-07 -1.57594666E-07  1.22054671E-02
  9.70898959E-02  1.02539486E-01 -1.03691739E-02 -8.17288308E-08  2.41463774E-01
  4.00361633E-01 -4.04860562E-02 -3.19107198E-07  4.09934723E-01  5.57264244E-01
 -5.63526313E-02 -4.44166016E-07  1.18207047E-01  6.20519613E-02  6.14717862E-02
 -9.93726122E-03 -7.83245365E-08  7.92046821E-09  6.58292049E-01  1.00000000E+00
  3.05573128E-02  2.63974404E-01  1.39639009E-02 -2.12334510E-01  2.89730362E-01
  3.70817654E-01  1.99555538E-02 -3.03443340E-01  4.14048327E-01  2.57582273E-01
  8.23048318E-03 -1.25152393E-01  1.70770394E-01  1.13013425E-01  2.28123680E-01
  3.27763448E-01 -1.31687076E-02  1.79686968E-02 -2.73231273E-01  2.63996431E-05
  6.06463083E-03  8.04626465E-03 -9.15704495E-03  5.43181745E-03  6.56215918E-02
  1.07985474E-01 -1.22892781E-01  7.28980970E-02  1.52329929E-01  1.49581549E-01
 -1.70231160E-01  1.00978492E-01  5.36968126E-03  6.60716351E-03  3.08772782E-03
 -8.26435743E-03  4.90228902E-03 -5.57904603E-03  1.80922418E-02  1.48046449E-01
  1.00000000E+00  9.04641411E-02  4.69091909E-01  1.03092635E-02 -1.56762242E-01
  2.13902023E-01  6.97467433E-01  2.27261351E-02 -3.45572687E-01  4.71533806E-01
  6.38493109E-01  1.70570479E-02 -2.59368777E-01  3.53908602E-01  3.45698756E-01
  3.74056257E-01  3.98602591E-01 -3.24412135E-03  4.42660240E-03 -6.73107362E-02
  1.24230940E-02  9.84528023E-02  6.28303174E-02 -7.15039916E-02  4.24150620E-02
  2.43734915E-01  2.44093380E-01 -2.77790273E-01  1.64780894E-01  4.11541031E-01
  3.37907164E-01 -3.84554974E-01  2.28112063E-01  8.34315552E-02  8.96345054E-02
  7.19931336E-02 -4.14255622E-02  2.45730028E-02 -2.79652859E-02  1.48046449E-01
  3.99716915E-01  6.58292049E-01  1.00000000E+00  3.05572209E-02  2.63973988E-01
  1.39631799E-02 -2.12330056E-01 -2.89733131E-01  3.70817385E-01  1.99545447E-02
 -3.03437299E-01 -4.14052727E-01  2.57582216E-01  8.23007117E-03 -1.25149965E-01
 -1.70772296E-01  1.13013157E-01  2.28118780E-01  3.27767656E-01 -1.31677704E-02
 -1.79679666E-02  2.73228547E-01  2.64010221E-05  6.06480180E-03  8.04648176E-03
 -9.15723053E-03 -5.43202933E-03  6.56224414E-02  1.07986700E-01 -1.22893351E-01
 -7.28998016E-02  1.52330528E-01  1.49581895E-01 -1.70230411E-01 -1.00979940E-01
  5.36985088E-03  6.60729844E-03  3.08787285E-03 -8.26455739E-03 -4.90249950E-03
  5.57924810E-03  1.80926247E-02  1.48047700E-01  1.82692709E-02  1.48623076E-01
  1.00000000E+00  9.04640660E-02  4.69091604E-01  1.03087428E-02 -1.56759130E-01
 -2.13904307E-01  6.97467127E-01  2.27249925E-02 -3.45565908E-01 -4.71538954E-01
  6.38492991E-01  1.70561947E-02 -2.59363755E-01 -3.53912556E-01  3.45698497E-01
  3.74054897E-01  3.98603510E-01 -3.24389513E-03 -4.42642888E-03  6.73101615E-02
  1.24232787E-02  9.84539573E-02  6.28309753E-02 -7.15042601E-02 -4.24160162E-02
  2.43736836E-01  2.44094907E-01 -2.77790146E-01 -1.64783906E-01  4.11542385E-01
  3.37907729E-01 -3.84553033E-01 -2.28115187E-01  8.34325570E-02  8.96352011E-02
  7.19942562E-02 -4.14256809E-02 -2.45735338E-02  2.79657023E-02  1.48047700E-01
  3.99718995E-01  1.48623076E-01  4.00675053E-01  6.58292049E-01  1.00000000E+00
  1.30123997E-17  6.14921021E-06 -2.48580492E-05 -1.10915104E-11 -1.88943904E-11
  4.17162640E-03 -1.59323803E-02 -7.10893122E-09 -1.21100658E-08  2.54011587E-02
 -5.08192980E-02 -2.26752619E-08 -3.86273134E-08  2.76515285E-06  2.16861115E-08
  2.16861115E-08  2.12023489E-12  3.61182058E-12  1.61157239E-18  2.23648988E-07
  7.66023717E-03 -1.57841680E-02 -1.04958274E-02 -1.87500616E-08  4.69967629E-02
 -8.98167047E-02 -5.97244421E-02 -1.06693539E-07  4.84692975E-02 -4.84856985E-02
 -3.22410102E-02 -5.75963102E-08  1.28831996E-02  5.87602499E-03  3.21696065E-04
  1.44676248E-02  2.58454000E-08  1.71861359E-08  1.18289404E-11  1.83291887E-04
  5.64463172E-08  2.13168110E-03  5.64480967E-08  2.13170047E-03  1.00000000E+00
  6.14921021E-06  2.29375959E-03 -5.36840844E-03 -2.39535121E-09 -4.08048130E-09
  4.24449330E-02 -1.27041735E-01 -5.66852500E-08 -9.65633354E-08  1.57101044E-01
 -2.92377608E-01 -1.30457112E-07 -2.22233717E-07  4.54723058E-03  4.04104813E-04
  4.04104813E-04  3.20193413E-09  5.45449546E-09  2.43376272E-15  7.66023717E-03
  1.23626377E-01 -1.57543917E-01 -1.04760274E-01 -1.87146903E-07  2.81400116E-01
 -4.18420568E-01 -2.78232597E-01 -4.97043078E-07  2.86541463E-01 -2.66585611E-01
 -1.77268549E-01 -3.16677866E-07  1.71355666E-01  1.03601028E-01  4.98944243E-02
  1.39892145E-01  2.49907535E-07  1.66178309E-07  2.07839793E-06  3.48621946E-03
  2.15587514E-04  2.44416844E-02  2.15591222E-04  2.44418603E-02  2.19058872E-01
  1.00000000E+00  2.48580492E-05  5.36840844E-03 -1.17298400E-02 -5.67762661E-09
 -9.67183813E-09  5.28804570E-02 -1.35817963E-01 -7.25031919E-08 -1.23509203E-07
  6.43732888E-02 -5.72568053E-02 -5.39838024E-08 -9.19614187E-08  1.10905210E-02
  1.11584807E-03  1.11584807E-03  8.29642997E-09  1.41329702E-08  6.75274966E-15
  1.57841680E-02  1.57543917E-01 -1.57692541E-01 -1.48271832E-01 -2.64877258E-07
  1.86527545E-01 -1.00265044E-01 -1.91806187E-01 -3.42648340E-07  5.90613742E-02
  6.14341963E-02 -3.69121259E-02 -6.59409317E-08  1.73473596E-01  1.61756466E-01
  7.11363310E-02  1.76954406E-01  3.16116673E-07  2.80395701E-07  7.06032493E-06
  5.41619162E-03  5.50993712E-04  2.95634286E-02  5.51002752E-04  2.95636220E-02
  1.59605609E-16 -2.44085565E-17  1.00000000E+00  1.10915104E-11  2.39535121E-09
 -5.67762661E-09  9.94731833E-04 -4.31551538E-15  2.35949385E-08 -7.25031919E-08
  2.66745954E-02 -5.51090555E-14  2.87229701E-08 -5.39838023E-08  6.37305049E-02
 -4.10326260E-14  5.62713834E-09 -1.80730637E-10  4.97884628E-10 -1.31713596E-03
  6.75274966E-15 -1.00114377E-09  1.04958274E-02  1.04760274E-01 -1.48271832E-01
 -3.33084085E-02 -1.76132564E-07  1.24033203E-01 -1.91806187E-01  6.06397343E-02
 -2.27847159E-07  3.92734029E-02 -3.69121259E-02  9.23995033E-02 -4.38480277E-08
  1.83582001E-01  3.93323054E-02  4.73027562E-02  6.80988323E-02  2.80395701E-07
  8.08948121E-08  1.28091025E-06  9.82625505E-04 -1.38554629E-04 -7.43411364E-03
 -1.38554359E-04 -7.43402583E-03  3.34225953E-17 -3.15997694E-17  2.97743772E-32
  1.00000000E+00  1.88943904E-11  4.08048130E-09 -9.67183813E-09 -4.31551538E-15
  9.94731833E-04  4.01939827E-08 -1.23509203E-07 -5.51090555E-14  2.66745954E-02
  4.89295857E-08 -9.19614187E-08 -4.10326260E-14  6.37305049E-02  9.58583135E-09
  8.48146569E-10 -3.07874678E-10  6.75274966E-15 -1.31713596E-03 -5.87698058E-10
  1.87500616E-08  1.87146903E-07 -2.64877258E-07 -1.76132564E-07  6.52863066E-02
  2.21576644E-07 -3.42648340E-07 -2.27847159E-07  1.88183019E-01  7.01591879E-08
 -6.59409317E-08 -4.38480277E-08  1.16944560E-01  3.27956407E-07  1.92151002E-07
 -3.73835230E-08  2.80395701E-07 -8.88598448E-02 -5.90881694E-02 -4.58611182E-13
 -3.51814692E-10  1.89058482E-04  1.01438852E-02 -1.89063063E-04 -1.01440309E-02
  2.77163281E-23  1.30834374E-23  6.89745763E-39  1.72436441E-39  1.00000000E+00
  4.17162640E-03  4.24449330E-02 -5.28804570E-02 -2.35949385E-08 -4.01939827E-08
  1.40154512E-01 -2.77846188E-01 -1.23973280E-07 -2.11188509E-07  3.23710886E-01
 -5.19169805E-01 -2.31650411E-07 -3.94616524E-07  5.81195399E-02  2.45340935E-02
  2.45340935E-02  2.59558587E-08  4.42158108E-08  1.97288260E-14  4.69967629E-02
  2.81400116E-01 -1.86527545E-01 -1.24033203E-01 -2.21576644E-07  4.92404782E-01
 -4.88073026E-01 -3.24548638E-01 -5.79783446E-07  5.43381836E-01 -4.35734979E-01
 -2.89745973E-01 -5.17610920E-07  2.62384772E-01  2.25066102E-01  1.95484968E-01
  7.70513866E-02  1.37646914E-07  9.15295788E-08  1.69221351E-03  2.60826027E-02
  1.41833521E-02  9.57876019E-02  1.41834639E-02  9.57880634E-02  1.84261053E-01
  8.12273068E-01 -3.82215574E-16 -7.26201811E-17 -4.55636470E-23  1.00000000E+00
  1.59323803E-02  1.27041735E-01 -1.35817963E-01 -7.25031919E-08 -1.23509203E-07
  2.77846188E-01 -4.10655470E-01 -2.45768066E-07 -4.18665952E-07  2.64527243E-01
 -1.62364791E-01 -1.89298066E-07 -3.22469296E-07  1.56419027E-01  8.03325589E-02
  8.03325589E-02  7.18949122E-08  1.22472998E-07  6.45985587E-14  8.98167047E-02
  4.18420568E-01 -1.00265044E-01 -1.91806187E-01 -3.42648340E-07  4.88073026E-01
  8.62540669E-03 -3.21693536E-01 -5.74683006E-07  2.22015555E-01  2.61569141E-01
 -1.18384732E-01 -2.11486045E-07  2.94574437E-01  3.68465525E-01  3.20036961E-01
  4.84089485E-02  8.64792013E-08  1.49847063E-07  7.25288136E-03  6.85170745E-02
  4.57595275E-02  1.88733773E-01  4.57598515E-02  1.88734527E-01  3.89100851E-17
 -3.26928154E-16  5.69754058E-01  3.48597831E-32  1.66224399E-38  0.00000000E+00
  1.00000000E+00  7.10893122E-09  5.66852500E-08 -7.25031919E-08  2.66745954E-02
 -5.51090555E-14  1.23973280E-07 -2.45768066E-07  1.40154512E-01 -1.86806203E-13
  1.18030448E-07 -1.89298066E-07  2.61885870E-01 -1.43883839E-13  8.49116739E-08