                  Welcome to Q-Chem
     A Quantum Leap Into The Future Of Chemistry


 Q-Chem 5.4, Q-Chem, Inc., Pleasanton, CA (2021)

 E. Epifanovsky,  A. T. B. Gilbert,  Xintian Feng,  Joonho Lee,  Yuezhi Mao,  
 N. Mardirossian,  P. Pokhilko,  A. White,  M. Wormit,  M. P. Coons,  
 A. L. Dempwolff,  Zhengting Gan,  D. Hait,  P. R. Horn,  L. D. Jacobson,  
 I. Kaliman,  J. Kussmann,  A. W. Lange,  Ka Un Lao,  D. S. Levine,  Jie Liu,  
 S. C. McKenzie,  A. F. Morrison,  K. Nanda,  F. Plasser,  D. R. Rehn,  
 M. L. Vidal,  Zhi-Qiang You,  Ying Zhu,  B. Alam,  B. Albrecht,  
 A. Aldossary,  E. Alguire,  J. H. Andersen,  D. Barton,  K. Begam,  A. Behn,  
 Y. A. Bernard,  E. J. Berquist,  H. Burton,  A. Carreras,  K. Carter-Fenk,  
 R. Chakraborty,  A. D. Chien,  K. D. Closser,  V. Cofer-Shabica,  
 S. Dasgupta,  Jia Deng,  M. de Wergifosse,  M. Diedenhofen,  Hainam Do,  
 S. Ehlert,  Po-Tung Fang,  S. Fatehi,  Qingguo Feng,  J. Gayvert,  
 Qinghui Ge,  G. Gidofalvi,  M. Goldey,  J. Gomes,  C. Gonzalez-Espinoza,  
 S. Gulania,  A. Gunina,  M. W. D. Hanson-Heine,  P. H. P. Harbach,  
 A. W. Hauser,  M. F. Herbst,  M. Hernandez Vera,  M. Hodecker,  
 Z. C. Holden,  S. Houck,  Xunkun Huang,  Kerwin Hui,  B. C. Huynh,  
 M. Ivanov,  Hyunjun Ji,  Hanjie Jiang,  B. Kaduk,  S. Kaehler,  
 K. Khistyaev,  Jaehoon Kim,  P. Klunzinger,  Z. Koczor-Benda,  
 Joong Hoon Koh,  D. Kosenkov,  L. Koulias,  T. Kowalczyk,  C. M. Krauter,  
 K. Kue,  A. Kunitsa,  T. Kus,  A. Landau,  K. V. Lawler,  D. Lefrancois,  
 S. Lehtola,  Rain Li,  Yi-Pei Li,  Jiashu Liang,  M. Liebenthal,  
 Hung-Hsuan Lin,  You-Sheng Lin,  Fenglai Liu,  Kuan-Yu Liu,  
 M. Loipersberger,  A. Luenser,  A. Manjanath,  P. Manohar,  E. Mansoor,  
 S. F. Manzer,  Shan-Ping Mao,  A. V. Marenich,  T. Markovich,  S. Mason,  
 S. A. Maurer,  P. F. McLaughlin,  M. F. S. J. Menger,  J.-M. Mewes,  
 S. A. Mewes,  P. Morgante,  J. W. Mullinax,  T. S. Nguyen-Beck,  
 K. J. Oosterbaan,  G. Paran,  Alexander C. Paul,  Suranjan K. Paul,  
 F. Pavosevic,  Zheng Pei,  S. Prager,  E. I. Proynov,  E. Ramos,  B. Rana,  
 A. E. Rask,  A. Rettig,  R. M. Richard,  F. Rob,  E. Rossomme,  T. Scheele,  
 M. Scheurer,  M. Schneider,  N. Sergueev,  S. M. Sharada,  W. Skomorowski,  
 D. W. Small,  C. J. Stein,  Yu-Chuan Su,  E. J. Sundstrom,  Zhen Tao,  
 J. Thirman,  T. Tsuchimochi,  N. M. Tubman,  S. P. Veccham,  O. Vydrov,  
 J. Wenzel,  J. Witte,  A. Yamada,  Kun Yao,  S. Yeganeh,  S. R. Yost,  
 A. Zech,  Igor Ying Zhang,  Xing Zhang,  Yu Zhang,  D. Zuev,  
 A. Aspuru-Guzik,  A. T. Bell,  N. A. Besley,  K. B. Bravaya,  B. R. Brooks,  
 D. Casanova,  Jeng-Da Chai,  S. Coriani,  C. J. Cramer,  
 A. E. DePrince, III,  R. A. DiStasio Jr.,  A. Dreuw,  B. D. Dunietz,  
 T. R. Furlani,  W. A. Goddard III,  S. Grimme,  S. Hammes-Schiffer,  
 T. Head-Gordon,  W. J. Hehre,  Chao-Ping Hsu,  T.-C. Jagau,  Yousung Jung,  
 A. Klamt,  Jing Kong,  D. S. Lambrecht,  WanZhen Liang,  N. J. Mayhall,  
 C. W. McCurdy,  J. B. Neaton,  C. Ochsenfeld,  J. A. Parkhill,  R. Peverati,  
 V. A. Rassolov,  Yihan Shao,  L. V. Slipchenko,  T. Stauch,  R. P. Steele,  
 J. E. Subotnik,  A. J. W. Thom,  A. Tkatchenko,  D. G. Truhlar,  
 T. Van Voorhis,  T. A. Wesolowski,  K. B. Whaley,  H. L. Woodcock III,  
 P. M. Zimmerman,  S. Faraji,  P. M. W. Gill,  M. Head-Gordon,  
 J. M. Herbert,  A. I. Krylov

 Contributors to earlier versions of Q-Chem not listed above: 
 R. D. Adamson,  B. Austin,  R. Baer,  J. Baker,  G. J. O. Beran,  
 K. Brandhorst,  S. T. Brown,  E. F. C. Byrd,  A. K. Chakraborty,  
 G. K. L. Chan,  Chun-Min Chang,  Yunqing Chen,  C.-L. Cheng,  
 Siu Hung Chien,  D. M. Chipman,  D. L. Crittenden,  H. Dachsel,  
 R. J. Doerksen,  A. D. Dutoi,  R. G. Edgar,  J. Fosso-Tande,  
 L. Fusti-Molnar,  D. Ghosh,  A. Ghysels,  A. Golubeva-Zadorozhnaya,  
 J. Gonthier,  M. S. Gordon,  S. R. Gwaltney,  G. Hawkins,  J. E. Herr,  
 A. Heyden,  S. Hirata,  E. G. Hohenstein,  G. Kedziora,  F. J. Keil,  
 C. Kelley,  Jihan Kim,  R. A. King,  R. Z. Khaliullin,  P. P. Korambath,  
 W. Kurlancheek,  A. Laurent,  A. M. Lee,  M. S. Lee,  S. V. Levchenko,  
 Ching Yeh Lin,  D. Liotard,  E. Livshits,  R. C. Lochan,  I. Lotan,  
 L. A. Martinez-Martinez,  P. E. Maslen,  N. Nair,  D. P. O'Neill,  
 D. Neuhauser,  E. Neuscamman,  C. M. Oana,  R. Olivares-Amaya,  R. Olson,  
 T. M. Perrine,  B. Peters,  P. A. Pieniazek,  A. Prociuk,  Y. M. Rhee,  
 J. Ritchie,  M. A. Rohrdanz,  E. Rosta,  N. J. Russ,  H. F. Schaefer III,  
 M. W. Schmidt,  N. E. Schultz,  S. Sharma,  N. Shenvi,  C. D. Sherrill,  
 A. C. Simmonett,  A. Sodt,  T. Stein,  D. Stuck,  K. S. Thanthiriwatte,  
 V. Vanovschi,  L. Vogt,  Tao Wang,  A. Warshel,  M. A. Watson,  
 C. F. Williams,  Q. Wu,  X. Xu,  Jun Yang,  W. Zhang,  Yan Zhao

 Please cite Q-Chem as follows:
 Y. Shao et al., Mol. Phys. 113, 184-215 (2015)
 DOI: 10.1080/00268976.2014.952696

 Q-Chem 5.4.0 for Intel X86 EM64T Linux

 Parts of Q-Chem use Armadillo 9.800.1 (Horizon Scraper).
 http://arma.sourceforge.net/

--------------------------------------------------------------
User input:
--------------------------------------------------------------
$comment
  Q-Force generated input for: propane
$end

$molecule
  0 1
  C    -5.467000     1.905000    -0.072000
  C    -3.959000     1.905000    -0.072000
  H    -5.856000     2.951000    -0.072000
  H    -5.860000     1.382000    -0.976000
  H    -5.860000     1.381000     0.833000
  C    -3.400000     0.505000    -0.072000
  H    -3.585000     2.457000    -0.974000
  H    -3.585000     2.457000     0.831000
  H    -2.283000     0.532000    -0.072000
  H    -3.739000    -0.054000     0.833000
  H    -3.739000    -0.054000    -0.977000
$end

$rem
  method = PBE
  basis = 6-31+G(D)
  dft_d = d3_bj
  jobtype = opt
  mem_total = 1500
  geom_opt_max_cycles = 100
  max_scf_cycles = 100
  xc_grid = 3
$end


--------------------------------------------------------------
 Adding empirical dispersion correction 
 ----------------------------------------------------------------
 Doing -D3(BJ) with
 s6  =   1.00000
 s8  =   0.78750
 a1  =   0.42890
 a2  =   4.44070
 -D3 energy without 3body term =     -0.0060702515 hartrees
 ----------------------------------------------------------------
             Standard Nuclear Orientation (Angstroms)
    I     Atom           X                Y                Z
 ----------------------------------------------------------------
    1      C       1.2485196163    -0.2606011034     0.0001320900
    2      C      -0.0002107668     0.5848197498     0.0000261257
    3      H       2.1570516704     0.3874779857     0.0000994783
    4      H       1.2807214788    -0.9139286810     0.9041896747
    5      H       1.2802079933    -0.9149138642    -0.9048102605
    6      C      -1.2479756784    -0.2610902476     0.0000670795
    7      H      -0.0004682557     1.2516663711     0.9019682066
    8      H      -0.0004212215     1.2515096058    -0.9030317859
    9      H      -2.1577936324     0.3874845624    -0.0000129574
   10      H      -1.2806249478    -0.9141117864    -0.9048770597
   11      H      -1.2806721123    -0.9139545868     0.9051229328
 ----------------------------------------------------------------
 Molecular Point Group                 C1    NOp =  1
 Largest Abelian Subgroup              C1    NOp =  1
 Nuclear Repulsion Energy =          82.56416273 hartrees
 There are       13 alpha and       13 beta electrons
 Requested basis set is 6-31+G(d)
 There are 31 shells and 73 basis functions

 Total QAlloc Memory Limit   1500 MB
 Mega-Array Size       188 MB
 MEM_STATIC part       192 MB
 A cutoff of  1.0D-11 yielded    495 shell pairs
 There are      2799 function pairs
 Smallest overlap matrix eigenvalue = 2.00E-04

 Scale SEOQF with 1.000000e-01/1.000000e-01/1.000000e-01

 Standard Electronic Orientation quadrupole field applied
 Nucleus-field energy     =     0.0000000014 hartrees
 Guess from superposition of atomic densities
 Warning:  Energy on first SCF cycle will be non-variational
 SAD guess density has 26.000000 electrons

 -----------------------------------------------------------------------
  General SCF calculation program by
  Eric Jon Sundstrom, Paul Horn, Yuezhi Mao, Dmitri Zuev, Alec White,
  David Stuck, Shaama M.S., Shane Yost, Joonho Lee, David Small,
  Daniel Levine, Susi Lehtola, Hugh Burton, Evgeny Epifanovsky,
  Bang C. Huynh
 -----------------------------------------------------------------------
 Exchange:  PBE      Correlation:  PBE
 Using SG-3 standard quadrature grid
 Dispersion:   Grimme D3
 using 32 threads for integral computing
 -------------------------------------------------------
 OpenMP Integral computing Module                
 Release: version 1.0, May 2013, Q-Chem Inc. Pittsburgh 
 -------------------------------------------------------
 A restricted SCF calculation will be
 performed using DIIS
 SCF converges when DIIS error is below 1.0e-08
 ---------------------------------------
  Cycle       Energy         DIIS error
 ---------------------------------------
    1    -119.0889163081      7.65e-02  
    2    -118.8134835375      1.41e-02  
    3    -118.6363425635      2.08e-02  
    4    -118.9622371655      1.14e-03  
    5    -118.9628976996      5.92e-04  
    6    -118.9631029401      1.74e-04  
    7    -118.9631219381      1.95e-05  
    8    -118.9631222500      3.69e-06  
    9    -118.9631222618      1.65e-07  
   10    -118.9631222618      1.22e-07  
   11    -118.9631222618      2.75e-08  
   12    -118.9631222618      1.34e-09  Convergence criterion met
 ---------------------------------------
 SCF time:   CPU 187.19s  wall 16.00s 
 SCF   energy in the final basis set =     -118.9631222618
 Total energy in the final basis set =     -118.9631222618
 
 --------------------------------------------------------------
 
                    Orbital Energies (a.u.)
 --------------------------------------------------------------
 
 Alpha MOs
 -- Occupied --
 -9.8981  -9.8912  -9.8911  -0.7117  -0.6095  -0.5158  -0.4095  -0.3892
 -0.3523  -0.3323  -0.2934  -0.2919  -0.2813
 -- Virtual --
  0.0017   0.0209   0.0238   0.0301   0.0580   0.0669   0.0714   0.0736
  0.0827   0.1026   0.1086   0.1381   0.1631   0.1667   0.1700   0.2178
  0.2193   0.2271   0.2525   0.2805   0.2991   0.3140   0.5814   0.5904
  0.6135   0.6217   0.6487   0.6649   0.6898   0.6923   0.7841   0.8711
  0.8958   0.9095   0.9389   0.9573   1.0103   1.0462   1.0559   1.0612
  1.3675   1.3947   1.4103   1.5289   1.6983   1.8282   1.8867   1.9300
  1.9801   2.0612   2.1410   2.1636   2.2463   2.3107   2.3444   2.5272
  2.6379   4.0966   4.2077   4.3889
 --------------------------------------------------------------
 
          Ground-State Mulliken Net Atomic Charges

     Atom                 Charge (a.u.)
  ----------------------------------------
      1 C                    -0.679429
      2 C                    -0.331886
      3 H                     0.211229
      4 H                     0.211883
      5 H                     0.211551
      6 C                    -0.679457
      7 H                     0.210895
      8 H                     0.210729
      9 H                     0.210949
     10 H                     0.211774
     11 H                     0.211760
  ----------------------------------------
  Sum of atomic charges =     0.000000

 -----------------------------------------------------------------
                    Cartesian Multipole Moments
 -----------------------------------------------------------------
    Charge (ESU x 10^10)
                 0.0000
    Dipole Moment (Debye)
         X       0.0003      Y       0.1062      Z       0.0014
       Tot       0.1062
    Quadrupole Moments (Debye-Ang)
        XX     -22.9913     XY       0.0013     YY     -22.3944
        XZ       0.0021     YZ       0.0008     ZZ     -21.7131
    Octopole Moments (Debye-Ang^2)
       XXX       0.0122    XXY       1.8922    XYY       0.0044
       YYY       0.4264    XXZ       0.0055    XYZ      -0.0007
       YYZ       0.0024    XZZ      -0.0033    YZZ      -0.5216
       ZZZ       0.0050
    Hexadecapole Moments (Debye-Ang^3)
      XXXX    -208.4709   XXXY       0.0140   XXYY     -46.7734
      XYYY       0.0010   YYYY     -77.4203   XXXZ       0.0134
      XXYZ      -0.0014   XYYZ       0.0018   YYYZ       0.0034
      XXZZ     -43.4874   XYZZ       0.0042   YYZZ     -18.6199
      XZZZ       0.0057   YZZZ       0.0003   ZZZZ     -47.9622
 -----------------------------------------------------------------
 Calculating analytic gradient of the SCF energy
 Gradient of SCF Energy
            1           2           3           4           5           6
    1  -0.0157876  -0.0001983   0.0033036  -0.0015698  -0.0016073   0.0167328
    2   0.0050312  -0.0185512   0.0069444  -0.0028029  -0.0032474   0.0045464
    3   0.0005408   0.0003632   0.0000426   0.0057127  -0.0062948  -0.0000023
            7           8           9          10          11
    1  -0.0000166  -0.0000159  -0.0039047   0.0015311   0.0015328
    2   0.0031560   0.0033972   0.0073254  -0.0029011  -0.0028980
    3   0.0078278  -0.0081844  -0.0000014  -0.0060552   0.0060510
 Max gradient component =       1.855E-02
 RMS gradient           =       6.486E-03
 Gradient time:  CPU 35.85 s  wall 2.04 s
 Geometry Optimization Parameters
   NAtoms,    NIC,     NZ,  NCons,   NDum,   NFix, NCnnct, MaxDiis
       11      68       0       0       0       0       0       0


** GEOMETRY OPTIMIZATION IN DELOCALIZED INTERNAL COORDINATES **
   Searching for a Minimum

   Optimization Cycle:   1

                       Coordinates (Angstroms)
     ATOM                X               Y               Z
      1  C         1.2485196163   -0.2606011034    0.0001320900
      2  C        -0.0002107668    0.5848197498    0.0000261257
      3  H         2.1570516704    0.3874779857    0.0000994783
      4  H         1.2807214788   -0.9139286810    0.9041896747
      5  H         1.2802079933   -0.9149138642   -0.9048102605
      6  C        -1.2479756784   -0.2610902476    0.0000670795
      7  H        -0.0004682557    1.2516663711    0.9019682066
      8  H        -0.0004212215    1.2515096058   -0.9030317859
      9  H        -2.1577936324    0.3874845624   -0.0000129574
     10  H        -1.2806249478   -0.9141117864   -0.9048770597
     11  H        -1.2806721123   -0.9139545868    0.9051229328
   Point Group: c1    Number of degrees of freedom:    27


   Energy is   -118.963122262


 Attempting to generate delocalized internal coordinates
 Initial Hessian constructed with Jon Baker's OPTIMIZE code

 27 Hessian modes will be used to form the next step
  Hessian Eigenvalues:
     0.008121    0.008190    0.039863    0.051925    0.058951    0.058989
     0.059096    0.059186    0.084000    0.121980    0.160000    0.160000
     0.160000    0.160000    0.160000    0.160000    0.219098    0.313124
     0.313932    0.315523    0.316056    0.318365    0.318534    0.319281
     0.319281    0.319738    0.319850

 Minimum search - taking simple RFO step
 Searching for Lamda that Minimizes Along All modes
 Value Taken    Lamda =  -0.00392557
 Step Taken.  Stepsize is  0.131751

                             Maximum     Tolerance    Cnvgd?
         Gradient           0.019351      0.000300      NO
         Displacement       0.084133      0.001200      NO
         Energy change     *********      0.000001      NO


 New Cartesian Coordinates Obtained by Inverse Iteration

 Displacement from previous Coordinates is:  0.242993
 Adding empirical dispersion correction 
 ----------------------------------------------------------------
 Doing -D3(BJ) with
 s6  =   1.00000
 s8  =   0.78750
 a1  =   0.42890
 a2  =   4.44070
 -D3 energy without 3body term =     -0.0060025436 hartrees
 ----------------------------------------------------------------
             Standard Nuclear Orientation (Angstroms)
    I     Atom           X                Y                Z
 ----------------------------------------------------------------
    1      C       1.2821663985    -0.2563269213    -0.0000526819
    2      C      -0.0001824920     0.5873329040    -0.0001601482
    3      H       2.1925143879     0.3700066164    -0.0003151269
    4      H       1.3290554701    -0.9102834412     0.8903051794
    5      H       1.3288097311    -0.9105389278    -0.8902819233
    6      C      -1.2822010729    -0.2566086509    -0.0000021567
    7      H      -0.0001404210     1.2562094680     0.8832749429
    8      H      -0.0001780194     1.2557211864    -0.8840263737
    9      H      -2.1927631170     0.3696306161    -0.0000192371
   10      H      -1.3294144516    -0.9104882060    -0.8903794710
   11      H      -1.3293322697    -0.9102966382     0.8905305206
 ----------------------------------------------------------------
 Molecular Point Group                 C1    NOp =  1
 Largest Abelian Subgroup              C1    NOp =  1
 Nuclear Repulsion Energy =          81.84843895 hartrees
 There are       13 alpha and       13 beta electrons
 Applying Cartesian multipole field
    Component          Value
    ---------          -----
     (2,0,0)        1.00000E-11
     (0,2,0)        2.00000E-11
     (0,0,2)       -3.00000E-11
 Nucleus-field energy     =     0.0000000015 hartrees
 Requested basis set is 6-31+G(d)
 There are 31 shells and 73 basis functions
 A cutoff of  1.0D-11 yielded    495 shell pairs
 There are      2799 function pairs
 Smallest overlap matrix eigenvalue = 2.22E-04
 Guess MOs from SCF MO coefficient file

 -----------------------------------------------------------------------
  General SCF calculation program by
  Eric Jon Sundstrom, Paul Horn, Yuezhi Mao, Dmitri Zuev, Alec White,
  David Stuck, Shaama M.S., Shane Yost, Joonho Lee, David Small,
  Daniel Levine, Susi Lehtola, Hugh Burton, Evgeny Epifanovsky,
  Bang C. Huynh
 -----------------------------------------------------------------------
 Exchange:  PBE      Correlation:  PBE
 Using SG-3 standard quadrature grid
 Dispersion:   Grimme D3
 A restricted SCF calculation will be
 performed using DIIS
 SCF converges when DIIS error is below 1.0e-08
 ---------------------------------------
  Cycle       Energy         DIIS error
 ---------------------------------------
    1    -118.9643066197      7.89e-04  
    2    -118.9647902376      4.14e-04  
    3    -118.9648673409      2.62e-04  
    4    -118.9649127068      5.03e-05  
    5    -118.9649143669      8.52e-06  
    6    -118.9649144162      2.52e-06  
    7    -118.9649144202      4.87e-07  
    8    -118.9649144204      2.31e-08  
    9    -118.9649144203      4.10e-09  Convergence criterion met
 ---------------------------------------
 SCF time:   CPU 135.56s  wall 11.00s 
 SCF   energy in the final basis set =     -118.9649144203
 Total energy in the final basis set =     -118.9649144203
 
 --------------------------------------------------------------
 
                    Orbital Energies (a.u.)
 --------------------------------------------------------------
 
 Alpha MOs
 -- Occupied --
 -9.8991  -9.8897  -9.8897  -0.7042  -0.6114  -0.5220  -0.4044  -0.3865
 -0.3504  -0.3332  -0.2964  -0.2928  -0.2828
 -- Virtual --
  0.0025   0.0203   0.0245   0.0331   0.0579   0.0672   0.0739   0.0750
  0.0838   0.1026   0.1107   0.1391   0.1646   0.1713   0.1719   0.2171
  0.2201   0.2220   0.2472   0.2806   0.3041   0.3167   0.5717   0.5992
  0.6137   0.6258   0.6475   0.6546   0.6820   0.6901   0.7899   0.8816
  0.8975   0.9170   0.9379   0.9628   1.0025   1.0537   1.0636   1.0729
  1.3458   1.3972   1.4237   1.5240   1.6759   1.8242   1.8598   1.9129
  1.9685   2.0294   2.1606   2.1794   2.2530   2.3131   2.3379   2.5216
  2.6129   4.0823   4.2140   4.3889
 --------------------------------------------------------------
 
          Ground-State Mulliken Net Atomic Charges

     Atom                 Charge (a.u.)
  ----------------------------------------
      1 C                    -0.688236
      2 C                    -0.337497
      3 H                     0.213896
      4 H                     0.215039
      5 H                     0.215027
      6 C                    -0.688368
      7 H                     0.213082
      8 H                     0.213076
      9 H                     0.213885
     10 H                     0.215050
     11 H                     0.215047
  ----------------------------------------
  Sum of atomic charges =     0.000000

 -----------------------------------------------------------------
                    Cartesian Multipole Moments
 -----------------------------------------------------------------
    Charge (ESU x 10^10)
                 0.0000
    Dipole Moment (Debye)
         X      -0.0003      Y       0.0857      Z      -0.0000
       Tot       0.0857
    Quadrupole Moments (Debye-Ang)
        XX     -22.5610     XY       0.0013     YY     -22.2765
        XZ       0.0001     YZ       0.0001     ZZ     -21.7810
    Octopole Moments (Debye-Ang^2)
       XXX       0.0059    XXY       1.5097    XYY       0.0037
       YYY       0.3025    XXZ       0.0018    XYZ      -0.0005
       YYZ       0.0022    XZZ       0.0002    YZZ      -0.5538
       ZZZ       0.0056
    Hexadecapole Moments (Debye-Ang^3)
      XXXX    -214.1449   XXXY       0.0015   XXYY     -48.0038
      XYYY      -0.0058   YYYY     -76.3626   XXXZ       0.0021
      XXYZ       0.0000   XYYZ       0.0011   YYYZ       0.0041
      XXZZ     -44.6023   XYZZ      -0.0003   YYZZ     -18.3813
      XZZZ       0.0029   YZZZ       0.0016   ZZZZ     -47.1172
 -----------------------------------------------------------------
 Calculating analytic gradient of the SCF energy
 Gradient of SCF Energy
            1           2           3           4           5           6
    1   0.0004034  -0.0000604   0.0008962   0.0002603   0.0002548  -0.0002186
    2   0.0011010  -0.0020411  -0.0004971  -0.0000609  -0.0000656   0.0009940
    3   0.0000286   0.0000300  -0.0000042  -0.0000732   0.0000523  -0.0000107
            7           8           9          10          11
    1   0.0000114   0.0000091  -0.0009542  -0.0003014  -0.0003007
    2   0.0005438   0.0005524  -0.0004886  -0.0000178  -0.0000201
    3   0.0002815  -0.0003083   0.0000011   0.0000509  -0.0000480
 Max gradient component =       2.041E-03
 RMS gradient           =       5.475E-04
 Gradient time:  CPU 36.00 s  wall 1.86 s
 Geometry Optimization Parameters
   NAtoms,    NIC,     NZ,  NCons,   NDum,   NFix, NCnnct, MaxDiis
       11      68       0       0       0       0       0       0

 Cartesian Hessian Update
 Hessian updated using BFGS update


** GEOMETRY OPTIMIZATION IN DELOCALIZED INTERNAL COORDINATES **
   Searching for a Minimum

   Optimization Cycle:   2

                       Coordinates (Angstroms)
     ATOM                X               Y               Z
      1  C         1.2821663985   -0.2563269213   -0.0000526819
      2  C        -0.0001824920    0.5873329040   -0.0001601482
      3  H         2.1925143879    0.3700066164   -0.0003151269
      4  H         1.3290554701   -0.9102834412    0.8903051794
      5  H         1.3288097311   -0.9105389278   -0.8902819233
      6  C        -1.2822010729   -0.2566086509   -0.0000021567
      7  H        -0.0001404210    1.2562094680    0.8832749429
      8  H        -0.0001780194    1.2557211864   -0.8840263737
      9  H        -2.1927631170    0.3696306161   -0.0000192371
     10  H        -1.3294144516   -0.9104882060   -0.8903794710
     11  H        -1.3293322697   -0.9102966382    0.8905305206
   Point Group: c1    Number of degrees of freedom:    27


   Energy is   -118.964914420

 Hessian updated using BFGS update

 23 Hessian modes will be used to form the next step
  Hessian Eigenvalues:
     0.008121    0.008190    0.039863    0.052873    0.058963    0.059095
     0.059161    0.059186    0.084000    0.121980    0.159668    0.168178
     0.223224    0.301684    0.313539    0.315783    0.316618    0.318436
     0.318974    0.319281    0.319438    0.319787    0.331737

 Minimum search - taking simple RFO step
 Searching for Lamda that Minimizes Along All modes
 Value Taken    Lamda =  -0.00006453
 Step Taken.  Stepsize is  0.019500

                             Maximum     Tolerance    Cnvgd?
         Gradient           0.002697      0.000300      NO
         Displacement       0.011912      0.001200      NO
         Energy change     -0.001792      0.000001      NO


 New Cartesian Coordinates Obtained by Inverse Iteration

 Displacement from previous Coordinates is:  0.038296
 Adding empirical dispersion correction 
 ----------------------------------------------------------------
 Doing -D3(BJ) with
 s6  =   1.00000
 s8  =   0.78750
 a1  =   0.42890
 a2  =   4.44070
 -D3 energy without 3body term =     -0.0060139824 hartrees
 ----------------------------------------------------------------
             Standard Nuclear Orientation (Angstroms)
    I     Atom           X                Y                Z
 ----------------------------------------------------------------
    1      C       1.2771346872    -0.2579220368    -0.0000976218
    2      C      -0.0001839066     0.5904230219    -0.0002095510
    3      H       2.1850091070     0.3705147338    -0.0002940630
    4      H       1.3214991555    -0.9110502079     0.8908603287
    5      H       1.3213840986    -0.9113541031    -0.8908281199
    6      C      -1.2773364288    -0.2580479400     0.0000014398
    7      H      -0.0001753831     1.2572072719     0.8835057059
    8      H      -0.0002237685     1.2567931129    -0.8842319201
    9      H      -2.1853099107     0.3702861028    -0.0000049138
   10      H      -1.3217951819    -0.9113547492    -0.8908030205
   11      H      -1.3216683247    -0.9111372008     0.8909752597
 ----------------------------------------------------------------
 Molecular Point Group                 C1    NOp =  1
 Largest Abelian Subgroup              C1    NOp =  1
 Nuclear Repulsion Energy =          81.96317282 hartrees
 There are       13 alpha and       13 beta electrons
 Applying Cartesian multipole field
    Component          Value
    ---------          -----
     (2,0,0)        1.00000E-11
     (0,2,0)        2.00000E-11
     (0,0,2)       -3.00000E-11
 Nucleus-field energy     =     0.0000000015 hartrees
 Requested basis set is 6-31+G(d)
 There are 31 shells and 73 basis functions
 A cutoff of  1.0D-11 yielded    495 shell pairs
 There are      2799 function pairs
 Smallest overlap matrix eigenvalue = 2.21E-04
 Guess MOs from SCF MO coefficient file

 -----------------------------------------------------------------------
  General SCF calculation program by
  Eric Jon Sundstrom, Paul Horn, Yuezhi Mao, Dmitri Zuev, Alec White,
  David Stuck, Shaama M.S., Shane Yost, Joonho Lee, David Small,
  Daniel Levine, Susi Lehtola, Hugh Burton, Evgeny Epifanovsky,
  Bang C. Huynh
 -----------------------------------------------------------------------
 Exchange:  PBE      Correlation:  PBE
 Using SG-3 standard quadrature grid
 Dispersion:   Grimme D3
 A restricted SCF calculation will be
 performed using DIIS
 SCF converges when DIIS error is below 1.0e-08
 ---------------------------------------
  Cycle       Energy         DIIS error
 ---------------------------------------
    1    -118.9649396268      9.06e-05  
    2    -118.9649469664      4.28e-05  
    3    -118.9649471388      4.01e-05  
    4    -118.9649482410      2.08e-06  
    5    -118.9649482440      3.30e-07  
    6    -118.9649482440      1.67e-07  
    7    -118.9649482440      1.22e-08  
    8    -118.9649482440      2.70e-09  Convergence criterion met
 ---------------------------------------
 SCF time:   CPU 118.24s  wall 11.00s 
 SCF   energy in the final basis set =     -118.9649482440
 Total energy in the final basis set =     -118.9649482440
 
 --------------------------------------------------------------
 
                    Orbital Energies (a.u.)
 --------------------------------------------------------------
 
 Alpha MOs
 -- Occupied --
 -9.8985  -9.8893  -9.8893  -0.7049  -0.6112  -0.5219  -0.4050  -0.3867
 -0.3508  -0.3331  -0.2951  -0.2935  -0.2832
 -- Virtual --
  0.0026   0.0204   0.0245   0.0329   0.0581   0.0672   0.0739   0.0747
  0.0837   0.1028   0.1106   0.1391   0.1651   0.1717   0.1724   0.2175
  0.2209   0.2223   0.2472   0.2812   0.3040   0.3171   0.5728   0.5984
  0.6138   0.6244   0.6476   0.6549   0.6831   0.6908   0.7892   0.8816
  0.8981   0.9174   0.9386   0.9626   1.0034   1.0548   1.0642   1.0728
  1.3494   1.3977   1.4215   1.5246   1.6798   1.8246   1.8597   1.9153
  1.9688   2.0363   2.1606   2.1809   2.2550   2.3134   2.3389   2.5196
  2.6163   4.0849   4.2141   4.3900
 --------------------------------------------------------------
 
          Ground-State Mulliken Net Atomic Charges

     Atom                 Charge (a.u.)
  ----------------------------------------
      1 C                    -0.688040
      2 C                    -0.337406
      3 H                     0.213706
      4 H                     0.214887
      5 H                     0.214889
      6 C                    -0.688085
      7 H                     0.213278
      8 H                     0.213281
      9 H                     0.213705
     10 H                     0.214893
     11 H                     0.214891
  ----------------------------------------
  Sum of atomic charges =     0.000000

 -----------------------------------------------------------------
                    Cartesian Multipole Moments
 -----------------------------------------------------------------
    Charge (ESU x 10^10)
                 0.0000
    Dipole Moment (Debye)
         X      -0.0001      Y       0.0905      Z      -0.0001
       Tot       0.0905
    Quadrupole Moments (Debye-Ang)
        XX     -22.6215     XY       0.0003     YY     -22.2565
        XZ      -0.0000     YZ       0.0001     ZZ     -21.7613
    Octopole Moments (Debye-Ang^2)
       XXX       0.0086    XXY       1.5434    XYY       0.0035
       YYY       0.3145    XXZ       0.0020    XYZ      -0.0003
       YYZ       0.0022    XZZ       0.0024    YZZ      -0.5496
       ZZZ       0.0067
    Hexadecapole Moments (Debye-Ang^3)
      XXXX    -213.1722   XXXY      -0.0010   XXYY     -47.7689
      XYYY      -0.0028   YYYY     -76.5192   XXXZ       0.0027
      XXYZ       0.0005   XYYZ       0.0012   YYYZ       0.0041
      XXZZ     -44.3561   XYZZ      -0.0006   YYZZ     -18.3951
      XZZZ       0.0037   YZZZ       0.0018   ZZZZ     -47.0788
 -----------------------------------------------------------------
 Calculating analytic gradient of the SCF energy
 Gradient of SCF Energy
            1           2           3           4           5           6
    1  -0.0002115  -0.0000274  -0.0000952   0.0001060   0.0001056   0.0002726
    2   0.0002882  -0.0003710  -0.0001215  -0.0000501  -0.0000438   0.0002733
    3  -0.0000006  -0.0000003  -0.0000025  -0.0000375   0.0000407  -0.0000018
            7           8           9          10          11
    1   0.0000005   0.0000023   0.0000840  -0.0001180  -0.0001190
    2   0.0001104   0.0001058  -0.0001251  -0.0000323  -0.0000340
    3  -0.0000910   0.0000915   0.0000008   0.0000357  -0.0000351
 Max gradient component =       3.710E-04
 RMS gradient           =       1.308E-04
 Gradient time:  CPU 36.12 s  wall 1.89 s
 Geometry Optimization Parameters
   NAtoms,    NIC,     NZ,  NCons,   NDum,   NFix, NCnnct, MaxDiis
       11      68       0       0       0       0       0       0

 Cartesian Hessian Update
 Hessian updated using BFGS update


** GEOMETRY OPTIMIZATION IN DELOCALIZED INTERNAL COORDINATES **
   Searching for a Minimum

   Optimization Cycle:   3

                       Coordinates (Angstroms)
     ATOM                X               Y               Z
      1  C         1.2771346872   -0.2579220368   -0.0000976218
      2  C        -0.0001839066    0.5904230219   -0.0002095510
      3  H         2.1850091070    0.3705147338   -0.0002940630
      4  H         1.3214991555   -0.9110502079    0.8908603287
      5  H         1.3213840986   -0.9113541031   -0.8908281199
      6  C        -1.2773364288   -0.2580479400    0.0000014398
      7  H        -0.0001753831    1.2572072719    0.8835057059
      8  H        -0.0002237685    1.2567931129   -0.8842319201
      9  H        -2.1853099107    0.3702861028   -0.0000049138
     10  H        -1.3217951819   -0.9113547492   -0.8908030205
     11  H        -1.3216683247   -0.9111372008    0.8909752597
   Point Group: c1    Number of degrees of freedom:    27


   Energy is   -118.964948244

 Hessian updated using BFGS update

 24 Hessian modes will be used to form the next step
  Hessian Eigenvalues:
     0.008121    0.008190    0.039863    0.050145    0.058949    0.059095
     0.059186    0.059597    0.083999    0.121980    0.151116    0.159999
     0.168565    0.220159    0.302642    0.313538    0.315753    0.316229
     0.318383    0.318988    0.319281    0.319306    0.319763    0.353943

 Minimum search - taking simple RFO step
 Searching for Lamda that Minimizes Along All modes
 Value Taken    Lamda =  -0.00000194
 Step Taken.  Stepsize is  0.004638

                             Maximum     Tolerance    Cnvgd?
         Gradient           0.000291      0.000300     YES
         Displacement       0.002379      0.001200      NO
         Energy change     -0.000034      0.000001      NO


 New Cartesian Coordinates Obtained by Inverse Iteration

 Displacement from previous Coordinates is:  0.006591
 Adding empirical dispersion correction 
 ----------------------------------------------------------------
 Doing -D3(BJ) with
 s6  =   1.00000
 s8  =   0.78750
 a1  =   0.42890
 a2  =   4.44070
 -D3 energy without 3body term =     -0.0060152770 hartrees
 ----------------------------------------------------------------
             Standard Nuclear Orientation (Angstroms)
    I     Atom           X                Y                Z
 ----------------------------------------------------------------
    1      C       1.2768706701    -0.2580435185    -0.0001111302
    2      C      -0.0001782669     0.5910562071    -0.0002212547
    3      H       2.1851977827     0.3701415975    -0.0002768053
    4      H       1.3198798674    -0.9109070520     0.8910874695
    5      H       1.3197985302    -0.9112438869    -0.8910676373
    6      C      -1.2771382811    -0.2581357426     0.0000004432
    7      H      -0.0001586377     1.2571022214     0.8840230915
    8      H      -0.0002300561     1.2567417633    -0.8847367791
    9      H      -2.1855315331     0.3699687427    -0.0000144515
   10      H      -1.3201578692    -0.9112858685    -0.8909877354
   11      H      -1.3200180623    -0.9110364580     0.8911783133
 ----------------------------------------------------------------
 Molecular Point Group                 C1    NOp =  1
 Largest Abelian Subgroup              C1    NOp =  1
 Nuclear Repulsion Energy =          81.96397609 hartrees
 There are       13 alpha and       13 beta electrons
 Applying Cartesian multipole field
    Component          Value
    ---------          -----
     (2,0,0)        1.00000E-11
     (0,2,0)        2.00000E-11
     (0,0,2)       -3.00000E-11
 Nucleus-field energy     =     0.0000000015 hartrees
 Requested basis set is 6-31+G(d)
 There are 31 shells and 73 basis functions
 A cutoff of  1.0D-11 yielded    495 shell pairs
 There are      2799 function pairs
 Smallest overlap matrix eigenvalue = 2.21E-04
 Guess MOs from SCF MO coefficient file

 -----------------------------------------------------------------------
  General SCF calculation program by
  Eric Jon Sundstrom, Paul Horn, Yuezhi Mao, Dmitri Zuev, Alec White,
  David Stuck, Shaama M.S., Shane Yost, Joonho Lee, David Small,
  Daniel Levine, Susi Lehtola, Hugh Burton, Evgeny Epifanovsky,
  Bang C. Huynh
 -----------------------------------------------------------------------
 Exchange:  PBE      Correlation:  PBE
 Using SG-3 standard quadrature grid
 Dispersion:   Grimme D3
 A restricted SCF calculation will be
 performed using DIIS
 SCF converges when DIIS error is below 1.0e-08
 ---------------------------------------
  Cycle       Energy         DIIS error
 ---------------------------------------
    1    -118.9649487885      2.33e-05  
    2    -118.9649493755      5.90e-06  
    3    -118.9649493912      3.76e-06  
    4    -118.9649493999      1.25e-06  
    5    -118.9649494009      1.51e-07  
    6    -118.9649494009      3.46e-08  
    7    -118.9649494009      1.53e-08  
    8    -118.9649494009      7.60e-10  Convergence criterion met
 ---------------------------------------
 SCF time:   CPU 116.89s  wall 10.00s 
 SCF   energy in the final basis set =     -118.9649494009
 Total energy in the final basis set =     -118.9649494009
 
 --------------------------------------------------------------
 
                    Orbital Energies (a.u.)
 --------------------------------------------------------------
 
 Alpha MOs
 -- Occupied --
 -9.8985  -9.8893  -9.8893  -0.7049  -0.6111  -0.5218  -0.4051  -0.3867
 -0.3507  -0.3331  -0.2950  -0.2934  -0.2833
 -- Virtual --
  0.0026   0.0205   0.0245   0.0329   0.0581   0.0672   0.0739   0.0746
  0.0836   0.1028   0.1105   0.1391   0.1652   0.1717   0.1724   0.2174
  0.2208   0.2222   0.2471   0.2812   0.3039   0.3170   0.5729   0.5984
  0.6138   0.6241   0.6475   0.6549   0.6830   0.6906   0.7893   0.8816
  0.8983   0.9174   0.9387   0.9624   1.0035   1.0547   1.0641   1.0726
  1.3500   1.3975   1.4211   1.5245   1.6799   1.8252   1.8594   1.9155
  1.9694   2.0364   2.1605   2.1805   2.2549   2.3127   2.3387   2.5192
  2.6164   4.0849   4.2140   4.3898
 --------------------------------------------------------------
 
          Ground-State Mulliken Net Atomic Charges

     Atom                 Charge (a.u.)
  ----------------------------------------
      1 C                    -0.687897
      2 C                    -0.337450
      3 H                     0.213661
      4 H                     0.214849
      5 H                     0.214849
      6 C                    -0.687906
      7 H                     0.213268
      8 H                     0.213268
      9 H                     0.213660
     10 H                     0.214850
     11 H                     0.214849
  ----------------------------------------
  Sum of atomic charges =     0.000000

 -----------------------------------------------------------------
                    Cartesian Multipole Moments
 -----------------------------------------------------------------
    Charge (ESU x 10^10)
                 0.0000
    Dipole Moment (Debye)
         X      -0.0000      Y       0.0903      Z      -0.0000
       Tot       0.0903
    Quadrupole Moments (Debye-Ang)
        XX     -22.6284     XY       0.0001     YY     -22.2616
        XZ       0.0000     YZ       0.0001     ZZ     -21.7571
    Octopole Moments (Debye-Ang^2)
       XXX       0.0098    XXY       1.5554    XYY       0.0035
       YYY       0.3054    XXZ       0.0022    XYZ      -0.0002
       YYZ       0.0022    XZZ       0.0032    YZZ      -0.5506
       ZZZ       0.0072
    Hexadecapole Moments (Debye-Ang^3)
      XXXX    -213.0880   XXXY      -0.0026   XXYY     -47.7698
      XYYY      -0.0023   YYYY     -76.5603   XXXZ       0.0033
      XXYZ       0.0006   XYYZ       0.0012   YYYZ       0.0040
      XXZZ     -44.3473   XYZZ      -0.0008   YYZZ     -18.3987
      XZZZ       0.0040   YZZZ       0.0018   ZZZZ     -47.0809
 -----------------------------------------------------------------
 Calculating analytic gradient of the SCF energy
 Gradient of SCF Energy
            1           2           3           4           5           6
    1  -0.0001249  -0.0000090   0.0000060   0.0000140   0.0000140   0.0001426
    2   0.0000836  -0.0001802   0.0000102  -0.0000147  -0.0000143   0.0000839
    3   0.0000010   0.0000001  -0.0000004  -0.0000025   0.0000020   0.0000001
            7           8           9          10          11
    1   0.0000003   0.0000010  -0.0000105  -0.0000167  -0.0000168
    2   0.0000239   0.0000230   0.0000103  -0.0000126  -0.0000131
    3  -0.0000146   0.0000142   0.0000004   0.0000013  -0.0000017
 Max gradient component =       1.802E-04
 RMS gradient           =       5.108E-05
 Gradient time:  CPU 36.12 s  wall 1.87 s
 Geometry Optimization Parameters
   NAtoms,    NIC,     NZ,  NCons,   NDum,   NFix, NCnnct, MaxDiis
       11      68       0       0       0       0       0       0

 Cartesian Hessian Update
 Hessian updated using BFGS update


** GEOMETRY OPTIMIZATION IN DELOCALIZED INTERNAL COORDINATES **
   Searching for a Minimum

   Optimization Cycle:   4

                       Coordinates (Angstroms)
     ATOM                X               Y               Z
      1  C         1.2768706701   -0.2580435185   -0.0001111302
      2  C        -0.0001782669    0.5910562071   -0.0002212547
      3  H         2.1851977827    0.3701415975   -0.0002768053
      4  H         1.3198798674   -0.9109070520    0.8910874695
      5  H         1.3197985302   -0.9112438869   -0.8910676373
      6  C        -1.2771382811   -0.2581357426    0.0000004432
      7  H        -0.0001586377    1.2571022214    0.8840230915
      8  H        -0.0002300561    1.2567417633   -0.8847367791
      9  H        -2.1855315331    0.3699687427   -0.0000144515
     10  H        -1.3201578692   -0.9112858685   -0.8909877354
     11  H        -1.3200180623   -0.9110364580    0.8911783133
   Point Group: c1    Number of degrees of freedom:    27


   Energy is   -118.964949401

 Hessian updated using BFGS update

 25 Hessian modes will be used to form the next step
  Hessian Eigenvalues:
     0.008120    0.008189    0.039859    0.044342    0.058941    0.059095
     0.059186    0.059613    0.083996    0.121979    0.138049    0.160000
     0.160008    0.167466    0.219065    0.305926    0.313558    0.315731
     0.317195    0.318832    0.319015    0.319281    0.319721    0.330257
     0.339711

 Minimum search - taking simple RFO step
 Searching for Lamda that Minimizes Along All modes
 Value Taken    Lamda =  -0.00000020
 Step Taken.  Stepsize is  0.001501

                             Maximum     Tolerance    Cnvgd?
         Gradient           0.000114      0.000300     YES
         Displacement       0.000873      0.001200     YES
         Energy change     -0.000001      0.000001      NO


                       Distance Matrix (Angstroms)
             C (  1)   C (  2)   H (  3)   H (  4)   H (  5)   C (  6)
   C (  2)  1.533566
   H (  3)  1.104389  2.196514
   H (  4)  1.105584  2.189264  1.784486
   H (  5)  1.105584  2.189258  1.784481  1.782155
   C (  6)  2.554009  1.533543  3.518878  2.822171  2.822168
   H (  7)  2.169830  1.107025  2.518823  2.538270  3.097573  2.169820
   H (  8)  2.169821  1.107025  2.518814  3.097571  2.538243  2.169818
   H (  9)  3.518896  2.196508  4.370729  3.837006  3.837033  1.104397
   H ( 10)  2.822223  2.189256  3.837048  3.185215  2.639956  1.105584
   H ( 11)  2.822167  2.189258  3.837010  2.639898  3.185127  1.105584
             H (  7)   H (  8)   H (  9)   H ( 10)
   H (  8)  1.768760
   H (  9)  2.518806  2.518857
   H ( 10)  3.097575  2.538226  1.784466
   H ( 11)  2.538288  3.097576  1.784464  1.782166
 
 Final energy is   -118.964949400944     


 ******************************
 **  OPTIMIZATION CONVERGED  **
 ******************************

                       Coordinates (Angstroms)
     ATOM                X               Y               Z
      1  C         1.2768706701   -0.2580435185   -0.0001111302
      2  C        -0.0001782669    0.5910562071   -0.0002212547
      3  H         2.1851977827    0.3701415975   -0.0002768053
      4  H         1.3198798674   -0.9109070520    0.8910874695
      5  H         1.3197985302   -0.9112438869   -0.8910676373
      6  C        -1.2771382811   -0.2581357426    0.0000004432
      7  H        -0.0001586377    1.2571022214    0.8840230915
      8  H        -0.0002300561    1.2567417633   -0.8847367791
      9  H        -2.1855315331    0.3699687427   -0.0000144515
     10  H        -1.3201578692   -0.9112858685   -0.8909877354
     11  H        -1.3200180623   -0.9110364580    0.8911783133

Z-matrix Print:
$molecule
0 1
C 
H  1 1.107025
H  1 1.107025 2 106.046485
C  1 1.533543 2 109.454559 3 117.978891 0
H  4 1.104397 1 111.713924 2 -57.918480 0
H  4 1.105584 1 111.064734 2 62.346807 0
H  4 1.105584 1 111.064904 2 -178.183686 0
C  1 1.533566 2 109.453260 3 -117.977323 0
H  8 1.104389 1 111.713240 2 57.913761 0
H  8 1.105584 1 111.063777 2 178.180981 0
H  8 1.105584 1 111.063252 2 -62.352472 0
$end

 
 --------------------------------------------------------------
 
                    Orbital Energies (a.u.)
 --------------------------------------------------------------
 
 Alpha MOs
 -- Occupied --
 -9.8985  -9.8893  -9.8893  -0.7049  -0.6111  -0.5218  -0.4051  -0.3867
 -0.3507  -0.3331  -0.2950  -0.2934  -0.2833
 -- Virtual --
  0.0026   0.0205   0.0245   0.0329   0.0581   0.0672   0.0739   0.0746
  0.0836   0.1028   0.1105   0.1391   0.1652   0.1717   0.1724   0.2174
  0.2208   0.2222   0.2471   0.2812   0.3039   0.3170   0.5729   0.5984
  0.6138   0.6241   0.6475   0.6549   0.6830   0.6906   0.7893   0.8816
  0.8983   0.9174   0.9387   0.9624   1.0035   1.0547   1.0641   1.0726
  1.3500   1.3975   1.4211   1.5245   1.6799   1.8252   1.8594   1.9155
  1.9694   2.0364   2.1605   2.1805   2.2549   2.3127   2.3387   2.5192
  2.6164   4.0849   4.2140   4.3898
 --------------------------------------------------------------
 
          Ground-State Mulliken Net Atomic Charges

     Atom                 Charge (a.u.)
  ----------------------------------------
      1 C                    -0.687897
      2 C                    -0.337450
      3 H                     0.213661
      4 H                     0.214849
      5 H                     0.214849
      6 C                    -0.687906
      7 H                     0.213268
      8 H                     0.213268
      9 H                     0.213660
     10 H                     0.214850
     11 H                     0.214849
  ----------------------------------------
  Sum of atomic charges =     0.000000

 -----------------------------------------------------------------
                    Cartesian Multipole Moments
 -----------------------------------------------------------------
    Charge (ESU x 10^10)
                 0.0000
    Dipole Moment (Debye)
         X      -0.0000      Y       0.0903      Z      -0.0000
       Tot       0.0903
    Quadrupole Moments (Debye-Ang)
        XX     -22.6284     XY       0.0001     YY     -22.2616
        XZ       0.0000     YZ       0.0001     ZZ     -21.7571
    Octopole Moments (Debye-Ang^2)
       XXX       0.0098    XXY       1.5554    XYY       0.0035
       YYY       0.3054    XXZ       0.0022    XYZ      -0.0002
       YYZ       0.0022    XZZ       0.0032    YZZ      -0.5506
       ZZZ       0.0072
    Hexadecapole Moments (Debye-Ang^3)
      XXXX    -213.0880   XXXY      -0.0026   XXYY     -47.7698
      XYYY      -0.0023   YYYY     -76.5603   XXXZ       0.0033
      XXYZ       0.0006   XYYZ       0.0012   YYYZ       0.0040
      XXZZ     -44.3473   XYZZ      -0.0008   YYZZ     -18.3987
      XZZZ       0.0040   YZZZ       0.0018   ZZZZ     -47.0809
 -----------------------------------------------------------------
 Total job time:  57.24s(wall), 727.70s(cpu) 
 Fri Jun 25 04:32:23 2021

        *************************************************************
        *                                                           *
        *  Thank you very much for using Q-Chem.  Have a nice day.  *
        *                                                           *
        *************************************************************


 
User input: 2 of 2 
 
                  Welcome to Q-Chem
     A Quantum Leap Into The Future Of Chemistry


 Q-Chem 5.4 (devel), Q-Chem, Inc., Pleasanton, CA (2021)

 E. Epifanovsky,  A. T. B. Gilbert,  Xintian Feng,  Joonho Lee,  Yuezhi Mao,  
 N. Mardirossian,  P. Pokhilko,  A. White,  M. Wormit,  M. P. Coons,  
 A. L. Dempwolff,  Zhengting Gan,  D. Hait,  P. R. Horn,  L. D. Jacobson,  
 I. Kaliman,  J. Kussmann,  A. W. Lange,  Ka Un Lao,  D. S. Levine,  Jie Liu,  
 S. C. McKenzie,  A. F. Morrison,  K. Nanda,  F. Plasser,  D. R. Rehn,  
 M. L. Vidal,  Zhi-Qiang You,  Ying Zhu,  B. Alam,  B. Albrecht,  
 A. Aldossary,  E. Alguire,  J. H. Andersen,  D. Barton,  K. Begam,  A. Behn,  
 Y. A. Bernard,  E. J. Berquist,  H. Burton,  A. Carreras,  K. Carter-Fenk,  
 R. Chakraborty,  A. D. Chien,  K. D. Closser,  V. Cofer-Shabica,  
 S. Dasgupta,  Jia Deng,  M. de Wergifosse,  M. Diedenhofen,  Hainam Do,  
 S. Ehlert,  Po-Tung Fang,  S. Fatehi,  Qingguo Feng,  J. Gayvert,  
 Qinghui Ge,  G. Gidofalvi,  M. Goldey,  J. Gomes,  C. Gonzalez-Espinoza,  
 S. Gulania,  A. Gunina,  M. W. D. Hanson-Heine,  P. H. P. Harbach,  
 A. W. Hauser,  M. F. Herbst,  M. Hernandez Vera,  M. Hodecker,  
 Z. C. Holden,  S. Houck,  Xunkun Huang,  Kerwin Hui,  B. C. Huynh,  
 M. Ivanov,  Hyunjun Ji,  Hanjie Jiang,  B. Kaduk,  S. Kaehler,  
 K. Khistyaev,  Jaehoon Kim,  P. Klunzinger,  Z. Koczor-Benda,  
 Joong Hoon Koh,  D. Kosenkov,  L. Koulias,  T. Kowalczyk,  C. M. Krauter,  
 K. Kue,  A. Kunitsa,  T. Kus,  A. Landau,  K. V. Lawler,  D. Lefrancois,  
 S. Lehtola,  Rain Li,  Yi-Pei Li,  Jiashu Liang,  M. Liebenthal,  
 Hung-Hsuan Lin,  You-Sheng Lin,  Fenglai Liu,  Kuan-Yu Liu,  
 M. Loipersberger,  A. Luenser,  A. Manjanath,  P. Manohar,  E. Mansoor,  
 S. F. Manzer,  Shan-Ping Mao,  A. V. Marenich,  T. Markovich,  S. Mason,  
 S. A. Maurer,  P. F. McLaughlin,  M. F. S. J. Menger,  J.-M. Mewes,  
 S. A. Mewes,  P. Morgante,  J. W. Mullinax,  T. S. Nguyen-Beck,  
 K. J. Oosterbaan,  G. Paran,  Alexander C. Paul,  Suranjan K. Paul,  
 F. Pavosevic,  Zheng Pei,  S. Prager,  E. I. Proynov,  E. Ramos,  B. Rana,  
 A. E. Rask,  A. Rettig,  R. M. Richard,  F. Rob,  E. Rossomme,  T. Scheele,  
 M. Scheurer,  M. Schneider,  N. Sergueev,  S. M. Sharada,  W. Skomorowski,  
 D. W. Small,  C. J. Stein,  Yu-Chuan Su,  E. J. Sundstrom,  Zhen Tao,  
 J. Thirman,  T. Tsuchimochi,  N. M. Tubman,  S. P. Veccham,  O. Vydrov,  
 J. Wenzel,  J. Witte,  A. Yamada,  Kun Yao,  S. Yeganeh,  S. R. Yost,  
 A. Zech,  Igor Ying Zhang,  Xing Zhang,  Yu Zhang,  D. Zuev,  
 A. Aspuru-Guzik,  A. T. Bell,  N. A. Besley,  K. B. Bravaya,  B. R. Brooks,  
 D. Casanova,  Jeng-Da Chai,  S. Coriani,  C. J. Cramer,  
 A. E. DePrince, III,  R. A. DiStasio Jr.,  A. Dreuw,  B. D. Dunietz,  
 T. R. Furlani,  W. A. Goddard III,  S. Grimme,  S. Hammes-Schiffer,  
 T. Head-Gordon,  W. J. Hehre,  Chao-Ping Hsu,  T.-C. Jagau,  Yousung Jung,  
 A. Klamt,  Jing Kong,  D. S. Lambrecht,  WanZhen Liang,  N. J. Mayhall,  
 C. W. McCurdy,  J. B. Neaton,  C. Ochsenfeld,  J. A. Parkhill,  R. Peverati,  
 V. A. Rassolov,  Yihan Shao,  L. V. Slipchenko,  T. Stauch,  R. P. Steele,  
 J. E. Subotnik,  A. J. W. Thom,  A. Tkatchenko,  D. G. Truhlar,  
 T. Van Voorhis,  T. A. Wesolowski,  K. B. Whaley,  H. L. Woodcock III,  
 P. M. Zimmerman,  S. Faraji,  P. M. W. Gill,  M. Head-Gordon,  
 J. M. Herbert,  A. I. Krylov

 Contributors to earlier versions of Q-Chem not listed above: 
 R. D. Adamson,  B. Austin,  R. Baer,  J. Baker,  G. J. O. Beran,  
 K. Brandhorst,  S. T. Brown,  E. F. C. Byrd,  A. K. Chakraborty,  
 G. K. L. Chan,  Chun-Min Chang,  Yunqing Chen,  C.-L. Cheng,  
 Siu Hung Chien,  D. M. Chipman,  D. L. Crittenden,  H. Dachsel,  
 R. J. Doerksen,  A. D. Dutoi,  R. G. Edgar,  J. Fosso-Tande,  
 L. Fusti-Molnar,  D. Ghosh,  A. Ghysels,  A. Golubeva-Zadorozhnaya,  
 J. Gonthier,  M. S. Gordon,  S. R. Gwaltney,  G. Hawkins,  J. E. Herr,  
 A. Heyden,  S. Hirata,  E. G. Hohenstein,  G. Kedziora,  F. J. Keil,  
 C. Kelley,  Jihan Kim,  R. A. King,  R. Z. Khaliullin,  P. P. Korambath,  
 W. Kurlancheek,  A. Laurent,  A. M. Lee,  M. S. Lee,  S. V. Levchenko,  
 Ching Yeh Lin,  D. Liotard,  E. Livshits,  R. C. Lochan,  I. Lotan,  
 L. A. Martinez-Martinez,  P. E. Maslen,  N. Nair,  D. P. O'Neill,  
 D. Neuhauser,  E. Neuscamman,  C. M. Oana,  R. Olivares-Amaya,  R. Olson,  
 T. M. Perrine,  B. Peters,  P. A. Pieniazek,  A. Prociuk,  Y. M. Rhee,  
 J. Ritchie,  M. A. Rohrdanz,  E. Rosta,  N. J. Russ,  H. F. Schaefer III,  
 M. W. Schmidt,  N. E. Schultz,  S. Sharma,  N. Shenvi,  C. D. Sherrill,  
 A. C. Simmonett,  A. Sodt,  T. Stein,  D. Stuck,  K. S. Thanthiriwatte,  
 V. Vanovschi,  L. Vogt,  Tao Wang,  A. Warshel,  M. A. Watson,  
 C. F. Williams,  Q. Wu,  X. Xu,  Jun Yang,  W. Zhang,  Yan Zhao

 Please cite Q-Chem as follows:
 Y. Shao et al., Mol. Phys. 113, 184-215 (2015)
 DOI: 10.1080/00268976.2014.952696

 Q-Chem 5.4.0 for Intel X86 EM64T Linux

 Parts of Q-Chem use Armadillo 9.800.1 (Horizon Scraper).
 http://arma.sourceforge.net/

 Q-Chem begins on Fri Jun 25 04:32:23 2021  

--------------------------------------------------------------
User input:
--------------------------------------------------------------


$molecule
  read
$end

$rem
  method = PBE
  basis = 6-31+G(D)
  dft_d = d3_bj
  jobtype = freq
  cm5 = true
  resp_charges = true
  nbo = 2
  iqmol_fchk = true
  mem_total = 1500
  geom_opt_max_cycles = 100
  max_scf_cycles = 100
  xc_grid = 3
$end

$nbo
  nbo
  bndidx
$end

--------------------------------------------------------------
 Adding empirical dispersion correction 
 ----------------------------------------------------------------
 Doing -D3(BJ) with
 s6  =   1.00000
 s8  =   0.78750
 a1  =   0.42890
 a2  =   4.44070
 -D3 energy without 3body term =     -0.0060152770 hartrees
 ----------------------------------------------------------------
             Standard Nuclear Orientation (Angstroms)
    I     Atom           X                Y                Z
 ----------------------------------------------------------------
    1      C       1.2770112021    -0.2603484023     0.0000017522
    2      C      -0.0000074463     0.5887968828     0.0000013278
    3      H       2.1853607237     0.3678043320    -0.0000004140
    4      H       1.3199575064    -0.9133881587     0.8910742632
    5      H       1.3199553660    -0.9133756348    -0.8910808773
    6      C      -1.2769977532    -0.2603495419    -0.0000001891
    7      H      -0.0000033645     1.2546695447     0.8843762231
    8      H       0.0000038178     1.2546558193    -0.8843836856
    9      H      -2.1853686029     0.3677873379     0.0000676769
   10      H      -1.3200010341    -0.9133234598    -0.8911182995
   11      H      -1.3199404277    -0.9134234124     0.8910477683
 ----------------------------------------------------------------
 Molecular Point Group                 C1    NOp =  1
 Largest Abelian Subgroup              C1    NOp =  1
 Nuclear Repulsion Energy =          81.96397609 hartrees
 There are       13 alpha and       13 beta electrons
 Requested basis set is 6-31+G(d)
 There are 31 shells and 73 basis functions

 Total QAlloc Memory Limit   1500 MB
 Mega-Array Size       204 MB
 MEM_STATIC part       192 MB

                       Distance Matrix (Angstroms)
             C (  1)   C (  2)   H (  3)   H (  4)   H (  5)   C (  6)
   C (  2)  1.533566
   H (  3)  1.104389  2.196514
   H (  4)  1.105584  2.189264  1.784486
   H (  5)  1.105584  2.189258  1.784481  1.782155
   C (  6)  2.554009  1.533543  3.518878  2.822171  2.822168
   H (  7)  2.169830  1.107025  2.518823  2.538270  3.097573  2.169820
   H (  8)  2.169821  1.107025  2.518814  3.097571  2.538243  2.169818
   H (  9)  3.518896  2.196508  4.370729  3.837006  3.837033  1.104397
   H ( 10)  2.822223  2.189256  3.837048  3.185215  2.639956  1.105584
   H ( 11)  2.822167  2.189258  3.837010  2.639898  3.185127  1.105584
             H (  7)   H (  8)   H (  9)   H ( 10)
   H (  8)  1.768760
   H (  9)  2.518806  2.518857
   H ( 10)  3.097575  2.538226  1.784466
   H ( 11)  2.538288  3.097576  1.784464  1.782166
 
 ================ Generating on-the-fly Promolecule Density  ================
using default PutDataFrgm: nothing
Spawning Job For Fragment 0
Done Job For Fragment 0
using default PutDataFrgm: nothing
Spawning Job For Fragment 1
Done Job For Fragment 1
 Time for running child jobs:  CPU 0.01 s  wall 1.27 s
 A cutoff of  1.0D-11 yielded    495 shell pairs
 There are      2799 function pairs
 Smallest overlap matrix eigenvalue = 2.21E-04
 ============= Method Specific Promolecule Density Constructed =============
 Guess from superposition of atomic densities
 Warning:  Energy on first SCF cycle will be non-variational
 SAD guess density has 26.000000 electrons

 -----------------------------------------------------------------------
  General SCF calculation program by
  Eric Jon Sundstrom, Paul Horn, Yuezhi Mao, Dmitri Zuev, Alec White,
  David Stuck, Shaama M.S., Shane Yost, Joonho Lee, David Small,
  Daniel Levine, Susi Lehtola, Hugh Burton, Evgeny Epifanovsky,
  Bang C. Huynh
 -----------------------------------------------------------------------
 Exchange:  PBE      Correlation:  PBE
 Using SG-3 standard quadrature grid
 Dispersion:   Grimme D3
 using 32 threads for integral computing
 -------------------------------------------------------
 OpenMP Integral computing Module                
 Release: version 1.0, May 2013, Q-Chem Inc. Pittsburgh 
 -------------------------------------------------------
 A restricted SCF calculation will be
 performed using DIIS
 SCF converges when DIIS error is below 1.0e-08
 ---------------------------------------
  Cycle       Energy         DIIS error
 ---------------------------------------
    1    -119.0709602722      7.60e-02  
    2    -118.8179813102      1.40e-02  
    3    -118.6625661378      2.00e-02  
    4    -118.9640193120      1.16e-03  
    5    -118.9647343891      5.78e-04  
    6    -118.9649289243      1.78e-04  
    7    -118.9649490888      1.93e-05  
    8    -118.9649493900      3.57e-06  
    9    -118.9649494008      1.49e-07  
   10    -118.9649494008      3.13e-08  
   11    -118.9649494008      5.04e-09  Convergence criterion met
 ---------------------------------------
 SCF time:   CPU 166.37s  wall 15.00s 
 SCF   energy in the final basis set =     -118.9649494008
 Total energy in the final basis set =     -118.9649494008
 
 --------------------------------------------------------------
 
                    Orbital Energies (a.u.)
 --------------------------------------------------------------
 
 Alpha MOs
 -- Occupied --
 -9.8985  -9.8893  -9.8893  -0.7049  -0.6111  -0.5218  -0.4051  -0.3867
 -0.3507  -0.3331  -0.2950  -0.2934  -0.2833
 -- Virtual --
  0.0026   0.0205   0.0245   0.0329   0.0581   0.0672   0.0739   0.0746
  0.0836   0.1028   0.1105   0.1391   0.1652   0.1717   0.1724   0.2174
  0.2208   0.2222   0.2471   0.2812   0.3039   0.3170   0.5729   0.5984
  0.6138   0.6241   0.6475   0.6549   0.6830   0.6906   0.7893   0.8816
  0.8983   0.9174   0.9387   0.9624   1.0035   1.0547   1.0641   1.0726
  1.3500   1.3975   1.4211   1.5245   1.6799   1.8252   1.8594   1.9155
  1.9694   2.0364   2.1605   2.1805   2.2549   2.3127   2.3387   2.5192
  2.6164   4.0849   4.2140   4.3898
 --------------------------------------------------------------
 
          Ground-State Mulliken Net Atomic Charges

     Atom                 Charge (a.u.)
  ----------------------------------------
      1 C                    -0.687897
      2 C                    -0.337450
      3 H                     0.213661
      4 H                     0.214849
      5 H                     0.214849
      6 C                    -0.687906
      7 H                     0.213268
      8 H                     0.213268
      9 H                     0.213660
     10 H                     0.214850
     11 H                     0.214849
  ----------------------------------------
  Sum of atomic charges =     0.000000

Performing Hirshfeld population analysis.
Hirshfeld: reading atomic densities from disk.
Hirshfeld: performing integration.
warning:  vdwdata pointer should have been initialzed before dftman
Hirshfeld: integration completed in 14.21 sec.

          Hirshfeld Atomic Charges         

     Atom                 Charge (a.u.)    
  ---------------------------------------- 
      1 C                    -0.114568
      2 C                    -0.070883
      3 H                     0.038427
      4 H                     0.037248
      5 H                     0.037248
      6 C                    -0.114568
      7 H                     0.037225
      8 H                     0.037225
      9 H                     0.038425
     10 H                     0.037248
     11 H                     0.037248
  ---------------------------------------- 
  Sum of atomic charges =     0.000276


          Charge Model 5         

     Atom                 Charge (a.u.)    
  ---------------------------------------- 
      1 C                    -0.260653
      2 C                    -0.181275
      3 H                     0.087742
      4 H                     0.087024
      5 H                     0.087024
      6 C                    -0.260652
      7 H                     0.089639
      8 H                     0.089639
      9 H                     0.087740
     10 H                     0.087024
     11 H                     0.087024
  ---------------------------------------- 
  Sum of atomic charges =     0.000276

  Building new vdw surfaces
         Merz-Kollman RESP Net Atomic Charges

     Atom                 Charge (a.u.)
  ----------------------------------------
      1 C                    -0.363295
      2 C                     0.378972
      3 H                     0.078771
      4 H                     0.078771
      5 H                     0.078771
      6 C                    -0.363295
      7 H                    -0.062506
      8 H                    -0.062506
      9 H                     0.078771
     10 H                     0.078771
     11 H                     0.078771
  ----------------------------------------
  Sum of atomic charges =     0.000000

  Related Dipole Moment =     0.1230 (X -0.0001 Y  0.1230 Z -0.0000)

 -----------------------------------------------------------------
                    Cartesian Multipole Moments
 -----------------------------------------------------------------
    Charge (ESU x 10^10)
                 0.0000
    Dipole Moment (Debye)
         X      -0.0000      Y       0.0903      Z      -0.0000
       Tot       0.0903
    Quadrupole Moments (Debye-Ang)
        XX     -22.6284     XY       0.0001     YY     -22.2620
        XZ      -0.0000     YZ      -0.0000     ZZ     -21.7571
    Octopole Moments (Debye-Ang^2)
       XXX      -0.0002    XXY       1.6065    XYY       0.0001
       YYY       0.4563    XXZ       0.0000    XYZ      -0.0001
       YYZ       0.0001    XZZ      -0.0001    YZZ      -0.5014
       ZZZ      -0.0001
    Hexadecapole Moments (Debye-Ang^3)
      XXXX    -213.0880   XXXY       0.0006   XXYY     -47.7769
      XYYY       0.0001   YYYY     -76.5637   XXXZ      -0.0003
      XXYZ       0.0001   XYYZ      -0.0001   YYYZ      -0.0001
      XXZZ     -44.3473   XYZZ       0.0001   YYZZ     -18.3964
      XZZZ       0.0002   YZZZ       0.0001   ZZZZ     -47.0809
 -----------------------------------------------------------------

 Begin NBO analysis for the ground state 


 *********************************** NBO 5.0 ***********************************
             N A T U R A L   A T O M I C   O R B I T A L   A N D
          N A T U R A L   B O N D   O R B I T A L   A N A L Y S I S
 *******************************************************************************
  (c) Copyright 1996-2002 Board of Regents of the University of Wisconsin System
      on behalf of the Theoretical Chemistry Institute.  All Rights Reserved.

          Cite this program as:

          NBO 5.0.  E. D. Glendening, J. K. Badenhoop, A. E. Reed,
          J. E. Carpenter, J. A. Bohmann, C. M. Morales, and F. Weinhold
          (Theoretical Chemistry Institute, University of Wisconsin,
          Madison, WI, 2001); http://www.chem.wisc.edu/~nbo5

       /NBO    / : Natural Bond Orbital Analysis
       /BNDIDX / : Print bond indices based on the NAO density matrix
  This is an open-shell NBO calculation

 Job title: Starting NBO analysis.                                          

 Storage needed:       27057 in NPA,       21675 in NBO (    25999935 available)


 NATURAL POPULATIONS:  Natural atomic orbital occupancies 
                                                          
  NAO Atom No lang   Type(AO)    Occupancy      Spin      
 -------------------------------------------------------  
   1    C  1  s      Cor( 1s)     1.99952     0.00000
   2    C  1  s      Val( 2s)     1.11645     0.00000
   3    C  1  s      Ryd( 3s)     0.00075     0.00000
   4    C  1  s      Ryd( 4s)     0.00019     0.00000
   5    C  1  s      Ryd( 5s)     0.00001     0.00000
   6    C  1  px     Val( 2p)     1.14046     0.00000
   7    C  1  px     Ryd( 3p)     0.00135     0.00000
   8    C  1  px     Ryd( 4p)     0.00011     0.00000
   9    C  1  py     Val( 2p)     1.20262     0.00000
  10    C  1  py     Ryd( 3p)     0.00109     0.00000
  11    C  1  py     Ryd( 4p)     0.00007     0.00000
  12    C  1  pz     Val( 2p)     1.25552     0.00000
  13    C  1  pz     Ryd( 3p)     0.00077     0.00000
  14    C  1  pz     Ryd( 4p)     0.00003     0.00000
  15    C  1  dxy    Ryd( 3d)     0.00087     0.00000
  16    C  1  dxz    Ryd( 3d)     0.00012     0.00000
  17    C  1  dyz    Ryd( 3d)     0.00132     0.00000
  18    C  1  dx2y2  Ryd( 3d)     0.00044     0.00000
  19    C  1  dz2    Ryd( 3d)     0.00072     0.00000
 
  20    C  2  s      Cor( 1s)     1.99944     0.00000
  21    C  2  s      Val( 2s)     1.05254     0.00000
  22    C  2  s      Ryd( 3s)     0.00074     0.00000
  23    C  2  s      Ryd( 4s)     0.00064     0.00000
  24    C  2  s      Ryd( 5s)     0.00001     0.00000
  25    C  2  px     Val( 2p)     1.03793     0.00000
  26    C  2  px     Ryd( 3p)     0.00122     0.00000
  27    C  2  px     Ryd( 4p)     0.00019     0.00000
  28    C  2  py     Val( 2p)     1.15543     0.00000
  29    C  2  py     Ryd( 3p)     0.00093     0.00000
  30    C  2  py     Ryd( 4p)     0.00013     0.00000
  31    C  2  pz     Val( 2p)     1.25358     0.00000
  32    C  2  pz     Ryd( 3p)     0.00220     0.00000
  33    C  2  pz     Ryd( 4p)     0.00001     0.00000
  34    C  2  dxy    Ryd( 3d)     0.00060     0.00000
  35    C  2  dxz    Ryd( 3d)     0.00023     0.00000
  36    C  2  dyz    Ryd( 3d)     0.00142     0.00000
  37    C  2  dx2y2  Ryd( 3d)     0.00054     0.00000
  38    C  2  dz2    Ryd( 3d)     0.00060     0.00000
 
  39    H  3  s      Val( 1s)     0.75070     0.00000
  40    H  3  s      Ryd( 2s)     0.00039     0.00000
 
  41    H  4  s      Val( 1s)     0.75768     0.00000
  42    H  4  s      Ryd( 2s)     0.00068     0.00000
 
  43    H  5  s      Val( 1s)     0.75768     0.00000
  44    H  5  s      Ryd( 2s)     0.00068     0.00000
 
  45    C  6  s      Cor( 1s)     1.99952     0.00000
  46    C  6  s      Val( 2s)     1.11645     0.00000
  47    C  6  s      Ryd( 3s)     0.00075     0.00000
  48    C  6  s      Ryd( 4s)     0.00019     0.00000
  49    C  6  s      Ryd( 5s)     0.00001     0.00000
  50    C  6  px     Val( 2p)     1.14047     0.00000
  51    C  6  px     Ryd( 3p)     0.00135     0.00000
  52    C  6  px     Ryd( 4p)     0.00011     0.00000
  53    C  6  py     Val( 2p)     1.20262     0.00000
  54    C  6  py     Ryd( 3p)     0.00109     0.00000
  55    C  6  py     Ryd( 4p)     0.00007     0.00000
  56    C  6  pz     Val( 2p)     1.25552     0.00000
  57    C  6  pz     Ryd( 3p)     0.00077     0.00000
  58    C  6  pz     Ryd( 4p)     0.00003     0.00000
  59    C  6  dxy    Ryd( 3d)     0.00087     0.00000
  60    C  6  dxz    Ryd( 3d)     0.00012     0.00000
  61    C  6  dyz    Ryd( 3d)     0.00132     0.00000
  62    C  6  dx2y2  Ryd( 3d)     0.00044     0.00000
  63    C  6  dz2    Ryd( 3d)     0.00072     0.00000
 
  64    H  7  s      Val( 1s)     0.75444     0.00000
  65    H  7  s      Ryd( 2s)     0.00114     0.00000
 
  66    H  8  s      Val( 1s)     0.75444     0.00000
  67    H  8  s      Ryd( 2s)     0.00114     0.00000
 
  68    H  9  s      Val( 1s)     0.75070     0.00000
  69    H  9  s      Ryd( 2s)     0.00039     0.00000
 
  70    H 10  s      Val( 1s)     0.75767     0.00000
  71    H 10  s      Ryd( 2s)     0.00068     0.00000
 
  72    H 11  s      Val( 1s)     0.75768     0.00000
  73    H 11  s      Ryd( 2s)     0.00068     0.00000


 Summary of Natural Population Analysis:

                                     Natural Population                 Natural
             Natural    ---------------------------------------------    Spin
  Atom No    Charge        Core      Valence    Rydberg      Total      Density
 ------------------------------------------------------------------------------
    C  1   -0.72242      1.99952     4.71506    0.00784     6.72242     0.00000
    C  2   -0.50838      1.99944     4.49947    0.00947     6.50838     0.00000
    H  3    0.24890      0.00000     0.75070    0.00039     0.75110     0.00000
    H  4    0.24164      0.00000     0.75768    0.00068     0.75836     0.00000
    H  5    0.24164      0.00000     0.75768    0.00068     0.75836     0.00000
    C  6   -0.72243      1.99952     4.71506    0.00784     6.72243     0.00000
    H  7    0.24442      0.00000     0.75444    0.00114     0.75558     0.00000
    H  8    0.24442      0.00000     0.75444    0.00114     0.75558     0.00000
    H  9    0.24890      0.00000     0.75070    0.00039     0.75110     0.00000
    H 10    0.24165      0.00000     0.75767    0.00068     0.75835     0.00000
    H 11    0.24165      0.00000     0.75768    0.00068     0.75835     0.00000
 ===============================================================================
 * Total *  0.00000      5.99849    19.97057    0.03094    26.00000     0.00000

                                 Natural Population      
 --------------------------------------------------------
   Core                       5.99849 ( 99.9748% of   6)
   Valence                   19.97057 ( 99.8529% of  20)
   Natural Minimal Basis     25.96906 ( 99.8810% of  26)
   Natural Rydberg Basis      0.03094 (  0.1190% of  26)
 --------------------------------------------------------

    Atom No         Natural Electron Configuration
 ----------------------------------------------------------------------------
      C  1      [core]2s( 1.12)2p( 3.60)
      C  2      [core]2s( 1.05)2p( 3.45)
      H  3            1s( 0.75)
      H  4            1s( 0.76)
      H  5            1s( 0.76)
      C  6      [core]2s( 1.12)2p( 3.60)
      H  7            1s( 0.75)
      H  8            1s( 0.75)
      H  9            1s( 0.75)
      H 10            1s( 0.76)
      H 11            1s( 0.76)


 Wiberg bond index matrix in the NAO basis:                                    

     Atom    1       2       3       4       5       6       7       8       9
     ---- ------  ------  ------  ------  ------  ------  ------  ------  ------
   1.  C  0.0000  1.0315  0.9238  0.9235  0.9235  0.0092  0.0025  0.0025  0.0102
   2.  C  1.0315  0.0000  0.0014  0.0028  0.0028  1.0315  0.9072  0.9072  0.0014
   3.  H  0.9238  0.0014  0.0000  0.0004  0.0004  0.0102  0.0007  0.0007  0.0010
   4.  H  0.9235  0.0028  0.0004  0.0000  0.0003  0.0008  0.0007  0.0133  0.0000
   5.  H  0.9235  0.0028  0.0004  0.0003  0.0000  0.0008  0.0133  0.0007  0.0000
   6.  C  0.0092  1.0315  0.0102  0.0008  0.0008  0.0000  0.0025  0.0025  0.9238
   7.  H  0.0025  0.9072  0.0007  0.0007  0.0133  0.0025  0.0000  0.0004  0.0007
   8.  H  0.0025  0.9072  0.0007  0.0133  0.0007  0.0025  0.0004  0.0000  0.0007
   9.  H  0.0102  0.0014  0.0010  0.0000  0.0000  0.9238  0.0007  0.0007  0.0000
  10.  H  0.0008  0.0028  0.0000  0.0000  0.0007  0.9235  0.0133  0.0007  0.0004
  11.  H  0.0008  0.0028  0.0000  0.0007  0.0000  0.9235  0.0007  0.0133  0.0004

     Atom   10      11
     ---- ------  ------
   1.  C  0.0008  0.0008
   2.  C  0.0028  0.0028
   3.  H  0.0000  0.0000
   4.  H  0.0000  0.0007
   5.  H  0.0007  0.0000
   6.  C  0.9235  0.9235
   7.  H  0.0133  0.0007
   8.  H  0.0007  0.0133
   9.  H  0.0004  0.0004
  10.  H  0.0000  0.0003
  11.  H  0.0003  0.0000


 Wiberg bond index, Totals by atom:                                            

     Atom    1
     ---- ------
   1.  C  3.8284
   2.  C  3.8913
   3.  H  0.9386
   4.  H  0.9426
   5.  H  0.9426
   6.  C  3.8284
   7.  H  0.9420
   8.  H  0.9420
   9.  H  0.9386
  10.  H  0.9426
  11.  H  0.9426


 Atom-atom overlap-weighted NAO bond order:                                    

     Atom    1       2       3       4       5       6       7       8       9
     ---- ------  ------  ------  ------  ------  ------  ------  ------  ------
   1.  C  0.0000  0.9110  0.7467  0.7465  0.7465  0.0189  0.0040  0.0040  0.0006
   2.  C  0.9110  0.0000  0.0067  0.0038  0.0038  0.9111  0.7375  0.7375  0.0067
   3.  H  0.7467  0.0067  0.0000  0.0010  0.0010  0.0006 -0.0027 -0.0027 -0.0001
   4.  H  0.7465  0.0038  0.0010  0.0000  0.0007  0.0004 -0.0027  0.0050  0.0000
   5.  H  0.7465  0.0038  0.0010  0.0007  0.0000  0.0004  0.0050 -0.0027  0.0000
   6.  C  0.0189  0.9111  0.0006  0.0004  0.0004  0.0000  0.0040  0.0040  0.7467
   7.  H  0.0040  0.7375 -0.0027 -0.0027  0.0050  0.0040  0.0000  0.0001 -0.0027
   8.  H  0.0040  0.7375 -0.0027  0.0050 -0.0027  0.0040  0.0001  0.0000 -0.0027
   9.  H  0.0006  0.0067 -0.0001  0.0000  0.0000  0.7467 -0.0027 -0.0027  0.0000
  10.  H  0.0004  0.0038  0.0000 -0.0001  0.0030  0.7465  0.0050 -0.0027  0.0010
  11.  H  0.0004  0.0038  0.0000  0.0030 -0.0001  0.7465 -0.0027  0.0050  0.0010

     Atom   10      11
     ---- ------  ------
   1.  C  0.0004  0.0004
   2.  C  0.0038  0.0038
   3.  H  0.0000  0.0000
   4.  H -0.0001  0.0030
   5.  H  0.0030 -0.0001
   6.  C  0.7465  0.7465
   7.  H  0.0050 -0.0027
   8.  H -0.0027  0.0050
   9.  H  0.0010  0.0010
  10.  H  0.0000  0.0007
  11.  H  0.0007  0.0000


 Atom-atom overlap-weighted NAO bond order, Totals by atom:                    

     Atom    1
     ---- ------
   1.  C  3.1791
   2.  C  3.3256
   3.  H  0.7505
   4.  H  0.7577
   5.  H  0.7577
   6.  C  3.1791
   7.  H  0.7448
   8.  H  0.7448
   9.  H  0.7505
  10.  H  0.7577
  11.  H  0.7577


 MO bond order:                                                                

     Atom    1       2       3       4       5       6       7       8       9
     ---- ------  ------  ------  ------  ------  ------  ------  ------  ------
   1.  C  0.0000  0.7514  1.6346  0.6754 -0.6172  0.0491  0.0213 -0.0019  0.0244
   2.  C  0.7514  0.0000  0.0597  0.0212  0.0085 -0.9318  1.6622  0.3155 -0.0311
   3.  H  1.6346  0.0597  0.0000  0.0302  0.0302  0.1286 -0.0227 -0.0227 -0.0186
   4.  H  0.6754  0.0212  0.0302  0.0000  0.0275 -0.0399 -0.0218  0.0771  0.0057
   5.  H -0.6172  0.0085  0.0302  0.0275  0.0000 -0.0223  0.0771 -0.0218  0.0057
   6.  C  0.0491 -0.9318  0.1286 -0.0399 -0.0223  0.0000  0.0764  0.0272  0.2264
   7.  H  0.0213  1.6622 -0.0227 -0.0218  0.0771  0.0764  0.0000  0.0309 -0.0227
   8.  H -0.0019  0.3155 -0.0227  0.0771 -0.0218  0.0272  0.0309  0.0000 -0.0227
   9.  H  0.0244 -0.0311 -0.0186  0.0057  0.0057  0.2264 -0.0227 -0.0227  0.0000
  10.  H -0.0045  0.0139  0.0057 -0.0026  0.0140 -0.7092  0.0771 -0.0218  0.0302
  11.  H -0.0247  0.0008  0.0057  0.0140 -0.0026  0.5778 -0.0217  0.0771  0.0302

     Atom   10      11
     ---- ------  ------
   1.  C -0.0045 -0.0247
   2.  C  0.0139  0.0008
   3.  H  0.0057  0.0057
   4.  H -0.0026  0.0140
   5.  H  0.0140 -0.0026
   6.  C -0.7092  0.5778
   7.  H  0.0771 -0.0217
   8.  H -0.0218  0.0771
   9.  H  0.0302  0.0302
  10.  H  0.0000  0.0275
  11.  H  0.0275  0.0000


 MO atomic valencies:                                                          

     Atom    1
     ---- ------
   1.  C  2.5080
   2.  C  1.8704
   3.  H  1.8309
   4.  H  0.7869
   5.  H -0.5008
   6.  C -0.6178
   7.  H  1.8562
   8.  H  0.4372
   9.  H  0.2277
  10.  H -0.5696
  11.  H  0.6841


 ***************************************************
 *******         Alpha spin orbitals         *******
 ***************************************************


 NATURAL POPULATIONS:  Natural atomic orbital occupancies 
                                                          
  NAO Atom No lang   Type(AO)    Occupancy      Energy    
 ---------------------------------------------------------
   1    C  1  s      Cor( 1s)     0.99976      -9.76136
   2    C  1  s      Val( 2s)     0.55823      -0.25519
   3    C  1  s      Ryd( 4s)     0.00038       1.39460
   4    C  1  s      Ryd( 3s)     0.00009       1.14433
   5    C  1  s      Ryd( 5s)     0.00000       4.10520
   6    C  1  px     Val( 2p)     0.57023      -0.07131
   7    C  1  px     Ryd( 4p)     0.00068       0.57153
   8    C  1  px     Ryd( 3p)     0.00006       0.31845
   9    C  1  py     Val( 2p)     0.60131      -0.07380
  10    C  1  py     Ryd( 4p)     0.00055       0.57122
  11    C  1  py     Ryd( 3p)     0.00004       0.28829
  12    C  1  pz     Val( 2p)     0.62776      -0.07713
  13    C  1  pz     Ryd( 4p)     0.00039       0.58035
  14    C  1  pz     Ryd( 3p)     0.00001       0.27145
  15    C  1  dxy    Ryd( 3d)     0.00044       2.13284
  16    C  1  dxz    Ryd( 3d)     0.00006       1.73022
  17    C  1  dyz    Ryd( 3d)     0.00066       2.09707
  18    C  1  dx2y2  Ryd( 3d)     0.00022       1.83810
  19    C  1  dz2    Ryd( 3d)     0.00036       1.99965
 
  20    C  2  s      Cor( 1s)     0.99972      -9.76709
  21    C  2  s      Val( 2s)     0.52627      -0.24140
  22    C  2  s      Ryd( 5s)     0.00037       2.09212
  23    C  2  s      Ryd( 4s)     0.00032       1.30268
  24    C  2  s      Ryd( 3s)     0.00000       0.41801
  25    C  2  px     Val( 2p)     0.51896      -0.06938
  26    C  2  px     Ryd( 4p)     0.00061       0.59454
  27    C  2  px     Ryd( 3p)     0.00009       0.22140
  28    C  2  py     Val( 2p)     0.57772      -0.07533
  29    C  2  py     Ryd( 4p)     0.00046       0.59814
  30    C  2  py     Ryd( 3p)     0.00006       0.24529
  31    C  2  pz     Val( 2p)     0.62679      -0.07881
  32    C  2  pz     Ryd( 4p)     0.00110       0.72696
  33    C  2  pz     Ryd( 3p)     0.00000       0.23718
  34    C  2  dxy    Ryd( 3d)     0.00030       2.19792
  35    C  2  dxz    Ryd( 3d)     0.00012       1.77570
  36    C  2  dyz    Ryd( 3d)     0.00071       2.11269
  37    C  2  dx2y2  Ryd( 3d)     0.00027       1.90969
  38    C  2  dz2    Ryd( 3d)     0.00030       2.02655
 
  39    H  3  s      Val( 1s)     0.37535       0.07481
  40    H  3  s      Ryd( 2s)     0.00020       0.67975
 
  41    H  4  s      Val( 1s)     0.37884       0.06983
  42    H  4  s      Ryd( 2s)     0.00034       0.69029
 
  43    H  5  s      Val( 1s)     0.37884       0.06983
  44    H  5  s      Ryd( 2s)     0.00034       0.69029
 
  45    C  6  s      Cor( 1s)     0.99976      -9.76135
  46    C  6  s      Val( 2s)     0.55822      -0.25519
  47    C  6  s      Ryd( 4s)     0.00038       1.39478
  48    C  6  s      Ryd( 3s)     0.00009       1.14441
  49    C  6  s      Ryd( 5s)     0.00000       4.10519
  50    C  6  px     Val( 2p)     0.57024      -0.07131
  51    C  6  px     Ryd( 4p)     0.00068       0.57151
  52    C  6  px     Ryd( 3p)     0.00006       0.31850
  53    C  6  py     Val( 2p)     0.60131      -0.07380
  54    C  6  py     Ryd( 4p)     0.00055       0.57120
  55    C  6  py     Ryd( 3p)     0.00004       0.28831
  56    C  6  pz     Val( 2p)     0.62776      -0.07713
[...]
  36. RY*( 9) C  2              0.00000     0.24144
  37. RY*(10) C  2              0.00000     0.40957
  38. RY*(11) C  2              0.00000     0.42348
  39. RY*(12) C  2              0.00000     1.79781
  40. RY*(13) C  2              0.00000     1.65564
  41. RY*(14) C  2              0.00000     1.93572
  42. RY*( 1) H  3              0.00020     0.67939
  43. RY*( 1) H  4              0.00034     0.68935
  44. RY*( 1) H  5              0.00034     0.68935
  45. RY*( 1) C  6              0.00097     0.87480
  46. RY*( 2) C  6              0.00054     0.94362
  47. RY*( 3) C  6              0.00038     1.29105
  48. RY*( 4) C  6              0.00014     0.67486
  49. RY*( 5) C  6              0.00001     0.54182
  50. RY*( 6) C  6              0.00000     4.00998
  51. RY*( 7) C  6              0.00001     0.37801
  52. RY*( 8) C  6              0.00000     1.01532
  53. RY*( 9) C  6              0.00000     0.34065
  54. RY*(10) C  6              0.00000     1.87634
  55. RY*(11) C  6              0.00000     1.61524
  56. RY*(12) C  6              0.00000     1.77530
  57. RY*(13) C  6              0.00000     1.73422
  58. RY*(14) C  6              0.00000     1.95729
  59. RY*( 1) H  7              0.00057     0.72415
  60. RY*( 1) H  8              0.00057     0.72415
  61. RY*( 1) H  9              0.00020     0.67940
  62. RY*( 1) H 10              0.00034     0.68935
  63. RY*( 1) H 11              0.00034     0.68935
  64. BD*( 1) C  1- C  2        0.00450     0.33616
  65. BD*( 1) C  1- H  3        0.00275     0.38850
  66. BD*( 1) C  1- H  4        0.00441     0.38137
  67. BD*( 1) C  1- H  5        0.00441     0.38137
  68. BD*( 1) C  2- C  6        0.00450     0.33618
  69. BD*( 1) C  2- H  7        0.00746     0.36805
  70. BD*( 1) C  2- H  8        0.00746     0.36805
  71. BD*( 1) C  6- H  9        0.00275     0.38848
  72. BD*( 1) C  6- H 10        0.00441     0.38137
  73. BD*( 1) C  6- H 11        0.00441     0.38137
          -------------------------------
                 Total Lewis   12.94291  ( 99.5608%)
           Valence non-Lewis    0.04706  (  0.3620%)
           Rydberg non-Lewis    0.01003  (  0.0772%)
          -------------------------------
               Total unit  1   13.00000  (100.0000%)
              Charge unit  1    0.00000

 *******************************************************************************
 Calculating MO derivatives via CPSCF
    1     0    36    0.0272421  
    2     0    36    0.0013811  
    3     2    34    0.0000496  
    4    36     0    0.0000005  Converged
 Time for AOints: 6.8 s (CPU) 0.2 s (wall)
 ------------------------------------------------------------------------------
                     AOints        : Timing summary (seconds)
 ------------------------------------------------------------------------------
     job step          cpu (% of tot)      sys (% of tot)     wall (% of tot)
 ------------------------------------------------------------------------------
  AOints            0.6796E+01 ( 2.3)   0.4900E-04 ( 2.1)   0.2130E+00 ( 1.9)
 ------------------------------------------------------------------------------
   Grand Totals     0.2949E+03          0.2295E-02          0.1144E+02
 ------------------------------------------------------------------------------
 Polarizability Matrix (a.u.)
            1           2           3
    1 -41.8405636   0.0000939   0.0000265
    2   0.0000939 -37.7899221  -0.0000041
    3   0.0000265  -0.0000041 -35.4645531
 Calculating analytic Hessian of the SCF energy
 
 Direct stationary perturbation theory relativistic correction:
 
 rels  =       0.025330165402
 relv  =      -0.115021222268
 rel2e =       0.000000000000
 E_rel =      -0.089691056866
 
 **********************************************************************
 **                                                                  **
 **                       VIBRATIONAL ANALYSIS                       **
 **                       --------------------                       **
 **                                                                  **
 **        VIBRATIONAL FREQUENCIES (CM**-1) AND NORMAL MODES         **
 **     FORCE CONSTANTS (mDYN/ANGSTROM) AND REDUCED MASSES (AMU)     **
 **                  INFRARED INTENSITIES (KM/MOL)                   **
 **                                                                  **
 **********************************************************************
 

 Mode:                 1                      2                      3
 Frequency:       219.40                 270.62                 359.67
 Force Cnst:      0.0292                 0.0490                 0.1563
 Red. Mass:       1.0281                 1.1360                 2.0506
 IR Active:          YES                    YES                    YES
 IR Intens:        0.000                  0.000                  0.060
 Raman Active:       YES                    YES                    YES
               X      Y      Z        X      Y      Z        X      Y      Z
 C          0.000 -0.000 -0.030    0.000  0.000  0.039   -0.172 -0.056  0.000
 C         -0.000 -0.000 -0.000    0.000 -0.000 -0.093   -0.000  0.172 -0.000
 H         -0.000  0.000  0.365    0.000  0.000  0.458    0.026 -0.345  0.000
 H         -0.177 -0.304 -0.244   -0.263 -0.212 -0.103   -0.386 -0.080 -0.006
 H          0.177  0.304 -0.244    0.263  0.212 -0.103   -0.386 -0.080  0.006
 C          0.000  0.000  0.030   -0.000  0.000  0.039    0.172 -0.056  0.000
 H          0.006  0.000 -0.000    0.000  0.093 -0.163   -0.000  0.150  0.014
 H         -0.006 -0.000 -0.000    0.000 -0.093 -0.163   -0.000  0.150 -0.014
 H         -0.000  0.000 -0.364    0.000 -0.000  0.458   -0.026 -0.345  0.000
 H          0.176 -0.304  0.244   -0.263  0.212 -0.103    0.386 -0.080  0.006
 H         -0.176  0.304  0.244    0.263 -0.212 -0.103    0.386 -0.080 -0.006
 TransDip   0.000  0.000  0.000   -0.000  0.000  0.000    0.000 -0.008 -0.000

 Mode:                 4                      5                      6
 Frequency:       734.77                 868.49                 889.31
 Force Cnst:      0.3434                 1.1123                 0.5138
 Red. Mass:       1.0797                 2.5029                 1.1027
 IR Active:          YES                    YES                    YES
 IR Intens:        4.016                  1.111                  0.000
 Raman Active:       YES                    YES                    YES
               X      Y      Z        X      Y      Z        X      Y      Z
 C          0.000  0.000  0.017    0.215 -0.058  0.000   -0.000  0.000  0.066
 C          0.000  0.000  0.077   -0.000  0.191 -0.000   -0.000 -0.000 -0.000
 H          0.000 -0.000 -0.116    0.457 -0.405 -0.000   -0.000  0.000 -0.199
 H          0.206 -0.189 -0.134   -0.011 -0.110 -0.024    0.304 -0.236 -0.128
 H         -0.206  0.189 -0.134   -0.011 -0.110  0.024   -0.304  0.236 -0.128
 C         -0.000 -0.000  0.017   -0.215 -0.058 -0.000    0.000  0.000 -0.066
 H         -0.000  0.462 -0.278   -0.000  0.184  0.005   -0.357 -0.000  0.000
 H          0.000 -0.462 -0.278    0.000  0.184 -0.005    0.357  0.000  0.000
 H         -0.000 -0.000 -0.116   -0.457 -0.405  0.000    0.000  0.000  0.199
 H          0.206  0.189 -0.134    0.011 -0.110  0.024   -0.304 -0.236  0.128
 H         -0.206 -0.189 -0.134    0.011 -0.110 -0.024    0.304  0.236  0.128
 TransDip  -0.000 -0.000 -0.064    0.000 -0.034  0.000    0.000  0.000  0.000

 Mode:                 7                      8                      9
 Frequency:       908.24                1054.93                1148.79
 Force Cnst:      0.5788                 1.5779                 1.4196
 Red. Mass:       1.1909                 2.4065                 1.8257
 IR Active:          YES                    YES                    YES
 IR Intens:        2.610                  0.862                  1.178
 Raman Active:       YES                    YES                    YES
               X      Y      Z        X      Y      Z        X      Y      Z
 C         -0.026 -0.083 -0.000   -0.138  0.105 -0.000   -0.034 -0.133 -0.000
 C         -0.038 -0.000 -0.000    0.259 -0.000 -0.000    0.000  0.192  0.000
 H         -0.326  0.359  0.000   -0.160  0.138 -0.000   -0.296  0.272  0.000
 H          0.323 -0.007  0.036   -0.150  0.133  0.016    0.362 -0.004  0.067
 H          0.323 -0.007 -0.036   -0.150  0.133 -0.016    0.362 -0.004 -0.067
 C         -0.026  0.083  0.000   -0.138 -0.105  0.000    0.034 -0.133 -0.000
 H          0.211 -0.000 -0.000    0.558 -0.000 -0.000    0.000  0.172  0.017
 H          0.211 -0.000 -0.000    0.558  0.000  0.000    0.000  0.172 -0.017
 H         -0.326 -0.359 -0.000   -0.160 -0.138 -0.000    0.296  0.272 -0.000
 H          0.323  0.007  0.036   -0.150 -0.133  0.016   -0.362 -0.004 -0.067
 H          0.324  0.007 -0.036   -0.150 -0.133 -0.016   -0.362 -0.004  0.067
 TransDip   0.052 -0.000  0.000    0.030 -0.000  0.000   -0.000  0.035 -0.000

 Mode:                10                     11                     12
 Frequency:      1181.35                1283.94                1329.51
 Force Cnst:      1.3769                 1.0937                 1.4802
 Red. Mass:       1.6745                 1.1261                 1.4213
 IR Active:          YES                    YES                    YES
 IR Intens:        0.188                  0.000                  2.881
 Raman Active:       YES                    YES                    YES
               X      Y      Z        X      Y      Z        X      Y      Z
 C         -0.000  0.000 -0.118    0.000 -0.000 -0.073   -0.017 -0.051 -0.000
 C          0.000 -0.000  0.181   -0.000  0.000 -0.000    0.178  0.000 -0.000
 H         -0.000  0.000  0.232    0.000 -0.000  0.106   -0.187  0.191  0.000
 H         -0.246  0.260  0.098   -0.122  0.141  0.038   -0.036  0.105  0.102
 H          0.246 -0.260  0.098    0.122 -0.141  0.038   -0.036  0.105 -0.102
 C         -0.000  0.000 -0.118    0.000 -0.000  0.073   -0.017  0.051  0.000
 H         -0.000  0.361 -0.098   -0.641 -0.000  0.000   -0.604  0.000 -0.000
 H          0.000 -0.361 -0.098    0.641  0.000  0.000   -0.604  0.000  0.000
 H          0.000 -0.000  0.232   -0.000  0.000 -0.106   -0.187 -0.191  0.000
 H         -0.246 -0.260  0.098    0.122  0.141 -0.038   -0.036 -0.105  0.102
 H          0.246  0.260  0.098   -0.122 -0.141 -0.038   -0.036 -0.105 -0.102
 TransDip   0.000  0.000  0.014   -0.000 -0.000  0.000    0.054  0.000  0.000

 Mode:                13                     14                     15
 Frequency:      1374.61                1391.48                1464.33
 Force Cnst:      1.4374                 1.4094                 1.3101
 Red. Mass:       1.2911                 1.2355                 1.0370
 IR Active:          YES                    YES                    YES
 IR Intens:        7.495                  4.129                  0.000
 Raman Active:       YES                    YES                    YES
               X      Y      Z        X      Y      Z        X      Y      Z
 C         -0.096  0.042 -0.000    0.083 -0.059  0.000   -0.000 -0.000 -0.036
 C          0.063 -0.000  0.000    0.000  0.009 -0.000   -0.000  0.000 -0.000
 H          0.177 -0.328  0.000   -0.212  0.347  0.000    0.000 -0.000  0.501
 H          0.377 -0.089 -0.104   -0.345  0.139  0.152    0.334  0.098  0.039
 H          0.377 -0.089  0.104   -0.345  0.139 -0.152   -0.334 -0.097  0.038
 C         -0.096 -0.042  0.000   -0.083 -0.059  0.000    0.000 -0.000  0.036
 H         -0.168  0.000 -0.000   -0.000  0.024 -0.006    0.053 -0.001  0.001
 H         -0.168  0.000  0.000   -0.000  0.024  0.006   -0.053 -0.001 -0.001
 H          0.177  0.327  0.000    0.212  0.347  0.000   -0.000 -0.000 -0.501
 H          0.376  0.089 -0.104    0.346  0.139 -0.152   -0.334  0.098 -0.039
 H          0.376  0.089  0.103    0.346  0.139  0.152    0.334 -0.097 -0.038
 TransDip   0.088 -0.000 -0.000    0.000  0.065  0.000    0.000 -0.000  0.000

 Mode:                16                     17                     18
 Frequency:      1464.71                1471.34                1483.04
 Force Cnst:      1.3267                 1.3407                 1.3480
 Red. Mass:       1.0496                 1.0512                 1.0403
 IR Active:          YES                    YES                    YES
 IR Intens:        0.012                  3.688                 19.374
 Raman Active:       YES                    YES                    YES
               X      Y      Z        X      Y      Z        X      Y      Z
 C          0.008  0.011 -0.000    0.013  0.035 -0.000   -0.000 -0.000 -0.033
 C         -0.000 -0.059 -0.000    0.034 -0.000 -0.000   -0.000 -0.000 -0.029
 H         -0.077  0.115  0.001   -0.135  0.222  0.000    0.000 -0.000  0.495
 H         -0.035 -0.185 -0.135   -0.071 -0.362 -0.276    0.341  0.091  0.032
 H         -0.037 -0.185  0.135   -0.071 -0.362  0.276   -0.341 -0.091  0.032
 C         -0.008  0.011  0.000    0.013 -0.035  0.000    0.000 -0.000 -0.033
 H          0.000  0.478 -0.378   -0.079  0.000 -0.000   -0.000 -0.043 -0.000
 H         -0.000  0.478  0.378   -0.079  0.000  0.000    0.000  0.043  0.000
 H          0.077  0.115 -0.001   -0.135 -0.222 -0.000   -0.000 -0.000  0.496
 H          0.035 -0.185  0.135   -0.072  0.362 -0.276    0.341 -0.091  0.032
 H          0.037 -0.185 -0.135   -0.071  0.362  0.276   -0.341  0.091  0.032
 TransDip   0.000  0.004 -0.000   -0.062  0.000 -0.000   -0.000  0.000  0.141

 Mode:                19                     20                     21
 Frequency:      1486.61                2965.06                2968.26
 Force Cnst:      1.3988                 5.4910                 5.3737
 Red. Mass:       1.0743                 1.0601                 1.0352
 IR Active:          YES                    YES                    YES
 IR Intens:        7.824                 29.637                 44.578
 Raman Active:       YES                    YES                    YES
               X      Y      Z        X      Y      Z        X      Y      Z
 C         -0.022 -0.024  0.000    0.002  0.009  0.000   -0.026  0.024  0.000
 C         -0.000 -0.062  0.000   -0.000 -0.068 -0.000    0.002  0.000 -0.000
 H          0.130 -0.222 -0.000   -0.036 -0.030  0.000    0.288  0.214  0.000
 H          0.076  0.315  0.233    0.004 -0.040  0.059    0.007 -0.247  0.350
 H          0.076  0.315 -0.233    0.004 -0.040 -0.059    0.007 -0.247 -0.350
 C          0.022 -0.024  0.000   -0.002  0.009  0.000   -0.026 -0.024  0.000
 H          0.000  0.250 -0.224    0.000  0.402  0.569   -0.002 -0.000 -0.000
 H          0.000  0.250  0.224    0.000  0.402 -0.569   -0.002 -0.000  0.000
 H         -0.130 -0.222 -0.000    0.037 -0.030 -0.000    0.289 -0.215 -0.000
 H         -0.076  0.315 -0.233   -0.004 -0.040 -0.059    0.007  0.248  0.352
 H         -0.076  0.315  0.233   -0.004 -0.040  0.059    0.007  0.248 -0.352
 TransDip   0.000  0.090 -0.000   -0.000 -0.174 -0.000   -0.214 -0.000  0.000

 Mode:                22                     23                     24
 Frequency:      2971.48                2993.14                3035.18
 Force Cnst:      5.3880                 5.8113                 5.9796
 Red. Mass:       1.0357                 1.1010                 1.1017
 IR Active:          YES                    YES                    YES
 IR Intens:       28.149                  5.973                  0.000
 Raman Active:       YES                    YES                    YES
               X      Y      Z        X      Y      Z        X      Y      Z
 C          0.027 -0.023 -0.000    0.000 -0.000  0.025   -0.000 -0.000 -0.065
 C         -0.000 -0.005  0.000    0.000  0.000 -0.085   -0.000 -0.000 -0.000
 H         -0.301 -0.220 -0.000   -0.000 -0.000  0.008    0.000  0.000 -0.017
 H         -0.009  0.245 -0.345   -0.005  0.116 -0.155    0.013 -0.298  0.398
 H         -0.009  0.245  0.345    0.005 -0.116 -0.154   -0.013  0.298  0.398
 C         -0.027 -0.023 -0.000    0.000 -0.000  0.025    0.000 -0.000  0.065
 H          0.000  0.034  0.051    0.000  0.395  0.515   -0.003  0.000  0.000
 H          0.000  0.034 -0.051   -0.000 -0.395  0.515    0.003 -0.000  0.000
 H          0.300 -0.219 -0.000    0.000 -0.000  0.008   -0.000  0.000  0.017
 H          0.009  0.244  0.343   -0.005 -0.116 -0.155   -0.013 -0.298 -0.398
 H          0.009  0.244 -0.343    0.005  0.116 -0.154    0.013  0.298 -0.398
 TransDip   0.000 -0.170 -0.000    0.000  0.000 -0.078   -0.000 -0.000 -0.000

 Mode:                25                     26                     27
 Frequency:      3044.21                3045.39                3047.27
 Force Cnst:      6.0193                 6.0195                 6.0178
 Red. Mass:       1.1024                 1.1016                 1.0999
 IR Active:          YES                    YES                    YES
 IR Intens:       96.479                 29.519                 51.430
 Raman Active:       YES                    YES                    YES
               X      Y      Z        X      Y      Z        X      Y      Z
 C         -0.000 -0.000 -0.060   -0.038 -0.051  0.000   -0.039 -0.052  0.000
 C         -0.000 -0.000 -0.037   -0.001  0.000  0.000   -0.000 -0.011  0.000
 H          0.001  0.001 -0.013    0.489  0.342  0.000    0.499  0.348  0.000
 H          0.016 -0.276  0.366   -0.015  0.136 -0.206   -0.018  0.143 -0.216
 H         -0.016  0.276  0.367   -0.015  0.135  0.205   -0.018  0.142  0.216
 C         -0.000  0.000 -0.060   -0.040  0.053  0.000    0.038 -0.050  0.000
 H         -0.000  0.164  0.217   -0.001 -0.001 -0.002   -0.000  0.057  0.077
 H         -0.000 -0.164  0.217   -0.001 -0.001  0.001   -0.000  0.057 -0.077
 H          0.001 -0.000 -0.013    0.507 -0.355 -0.000   -0.481  0.335  0.000
 H          0.016  0.276  0.366   -0.015 -0.141 -0.214    0.017  0.138  0.208
 H         -0.016 -0.276  0.367   -0.015 -0.140  0.213    0.017  0.138 -0.208
 TransDip  -0.000 -0.000 -0.315   -0.174  0.004  0.000   -0.003 -0.230  0.000

 STANDARD THERMODYNAMIC QUANTITIES AT   298.15 K  AND     1.00 ATM

   This Molecule has  0 Imaginary Frequencies
   Zero point vibrational energy:       63.552 kcal/mol

   Atom    1 Element C  Has Mass   12.00000
   Atom    2 Element C  Has Mass   12.00000
   Atom    3 Element H  Has Mass    1.00783
   Atom    4 Element H  Has Mass    1.00783
   Atom    5 Element H  Has Mass    1.00783
   Atom    6 Element C  Has Mass   12.00000
   Atom    7 Element H  Has Mass    1.00783
   Atom    8 Element H  Has Mass    1.00783
   Atom    9 Element H  Has Mass    1.00783
   Atom   10 Element H  Has Mass    1.00783
   Atom   11 Element H  Has Mass    1.00783
   Molecular Mass:    44.062640 amu
   Principal axes and moments of inertia in amu*Bohr^2:
                             1           2           3
    Eigenvalues --       62.02767   216.28315   244.18952
          X               1.00000     0.00000    -0.00000
          Y              -0.00000     1.00000    -0.00000
          Z               0.00000     0.00000     1.00000
   Rotational Symmetry Number is   1
   The Molecule is an Asymmetric Top
   Translational Enthalpy:        0.889 kcal/mol
   Rotational Enthalpy:           0.889 kcal/mol
   Vibrational Enthalpy:         64.645 kcal/mol
   gas constant (RT):             0.592 kcal/mol
   Translational Entropy:        37.275  cal/mol.K
   Rotational Entropy:           22.709  cal/mol.K
   Vibrational Entropy:           5.715  cal/mol.K

   Total Enthalpy:               67.015 kcal/mol
   Total Entropy:                65.698  cal/mol.K

        *************************************************************
        *                                                           *
        *  Thank you very much for using Q-Chem.  Have a nice day.  *
        *                                                           *
        *************************************************************


