 Entering Gaussian System, Link 0=g16
 Initial command:
 /hpc/sw/g16-B.01-avx//g16/l1.exe "/scratch-local/selsami/Gau-22125.inp" -scrdir="/scratch-local/selsami/"
 Entering Link 1 = /hpc/sw/g16-B.01-avx//g16/l1.exe PID=     22127.
  
 Copyright (c) 1988-2017, Gaussian, Inc.  All Rights Reserved.
  
 This is part of the Gaussian(R) 16 program.  It is based on
 the Gaussian(R) 09 system (copyright 2009, Gaussian, Inc.),
 the Gaussian(R) 03 system (copyright 2003, Gaussian, Inc.),
 the Gaussian(R) 98 system (copyright 1998, Gaussian, Inc.),
 the Gaussian(R) 94 system (copyright 1995, Gaussian, Inc.),
 the Gaussian 92(TM) system (copyright 1992, Gaussian, Inc.),
 the Gaussian 90(TM) system (copyright 1990, Gaussian, Inc.),
 the Gaussian 88(TM) system (copyright 1988, Gaussian, Inc.),
 the Gaussian 86(TM) system (copyright 1986, Carnegie Mellon
 University), and the Gaussian 82(TM) system (copyright 1983,
 Carnegie Mellon University). Gaussian is a federally registered
 trademark of Gaussian, Inc.
  
 This software contains proprietary and confidential information,
 including trade secrets, belonging to Gaussian, Inc.
  
 This software is provided under written license and may be
 used, copied, transmitted, or stored only in accord with that
 written license.
  
 The following legend is applicable only to US Government
 contracts under FAR:
  
                    RESTRICTED RIGHTS LEGEND
  
 Use, reproduction and disclosure by the US Government is
 subject to restrictions as set forth in subparagraphs (a)
 and (c) of the Commercial Computer Software - Restricted
 Rights clause in FAR 52.227-19.
  
 Gaussian, Inc.
 340 Quinnipiac St., Bldg. 40, Wallingford CT 06492
  
  
 ---------------------------------------------------------------
 Warning -- This program may not be used in any manner that
 competes with the business of Gaussian, Inc. or will provide
 assistance to any competitor of Gaussian, Inc.  The licensee
 of this program is prohibited from giving any competitor of
 Gaussian, Inc. access to this program.  By using this program,
 the user acknowledges that Gaussian, Inc. is engaged in the
 business of creating and licensing software in the field of
 computational chemistry and represents and warrants to the
 licensee that it is not a competitor of Gaussian, Inc. and that
 it will not use this program in any manner prohibited above.
 ---------------------------------------------------------------
  

 Cite this work as:
 Gaussian 16, Revision B.01,
 M. J. Frisch, G. W. Trucks, H. B. Schlegel, G. E. Scuseria, 
 M. A. Robb, J. R. Cheeseman, G. Scalmani, V. Barone, 
 G. A. Petersson, H. Nakatsuji, X. Li, M. Caricato, A. V. Marenich, 
 J. Bloino, B. G. Janesko, R. Gomperts, B. Mennucci, H. P. Hratchian, 
 J. V. Ortiz, A. F. Izmaylov, J. L. Sonnenberg, D. Williams-Young, 
 F. Ding, F. Lipparini, F. Egidi, J. Goings, B. Peng, A. Petrone, 
 T. Henderson, D. Ranasinghe, V. G. Zakrzewski, J. Gao, N. Rega, 
 G. Zheng, W. Liang, M. Hada, M. Ehara, K. Toyota, R. Fukuda, 
 J. Hasegawa, M. Ishida, T. Nakajima, Y. Honda, O. Kitao, H. Nakai, 
 T. Vreven, K. Throssell, J. A. Montgomery, Jr., J. E. Peralta, 
 F. Ogliaro, M. J. Bearpark, J. J. Heyd, E. N. Brothers, K. N. Kudin, 
 V. N. Staroverov, T. A. Keith, R. Kobayashi, J. Normand, 
 K. Raghavachari, A. P. Rendell, J. C. Burant, S. S. Iyengar, 
 J. Tomasi, M. Cossi, J. M. Millam, M. Klene, C. Adamo, R. Cammi, 
 J. W. Ochterski, R. L. Martin, K. Morokuma, O. Farkas, 
 J. B. Foresman, and D. J. Fox, Gaussian, Inc., Wallingford CT, 2016.
 
 ******************************************
 Gaussian 16:  ES64L-G16RevB.01 20-Dec-2017
                 3-Sep-2020 
 ******************************************
 %nprocshared=24
 Will use up to   24 processors via shared memory.
 %mem=4GB
 %chk=benzene_hessian.chk
 ----------------------------------------------------------------------
 #freq opt PBEPBE 6-31+G(D) EmpiricalDispersion=GD3BJ pop=(CM5, ESP, NB
 OREAD)
 ----------------------------------------------------------------------
 1/18=20,19=15,26=3,38=1/1,3;
 2/9=110,12=2,17=6,18=5,40=1/2;
 3/5=1,6=6,7=11,11=2,25=1,30=1,71=1,74=1009,124=41/1,2,3;
 4//1;
 5/5=2,38=5/2;
 6/7=2,8=2,9=2,10=2,15=8,28=1,40=2,79=1/1,2,7;
 7//1,2,3,16;
 1/18=20,19=15,26=3/3(2);
 2/9=110/2;
 99//99;
 2/9=110/2;
 3/5=1,6=6,7=11,11=2,25=1,30=1,71=1,74=1009,124=41/1,2,3;
 4/5=5,16=3,69=1/1;
 5/5=2,38=5/2;
 7//1,2,3,16;
 1/18=20,19=15,26=3/3(-5);
 2/9=110/2;
 6/7=2,8=2,9=2,10=2,15=8,19=2,28=1,40=2,79=1/1,2,7;
 99/9=1/99;
 ---------------
 benzene_hessian
 ---------------
 Symbolic Z-matrix:
 Charge =  0 Multiplicity = 1
 H                     5.22      6.86      4.48 
 C                     4.9       5.82      4.49 
 C                     5.85      4.8       4.49 
 H                     6.91      5.04      4.48 
 C                     3.53      5.51      4.49 
 H                     2.79      6.31      4.48 
 C                     3.12      4.17      4.48 
 H                     2.06      3.93      4.49 
 C                     4.07      3.15      4.48 
 H                     3.76      2.11      4.49 
 C                     5.44      3.46      4.48 
 H                     6.18      2.67      4.49 
 

 GradGradGradGradGradGradGradGradGradGradGradGradGradGradGradGradGradGrad
 Berny optimization.
 Initialization pass.
                           ----------------------------
                           !    Initial Parameters    !
                           ! (Angstroms and Degrees)  !
 --------------------------                            --------------------------
 ! Name  Definition              Value          Derivative Info.                !
 --------------------------------------------------------------------------------
 ! R1    R(1,2)                  1.0882         estimate D2E/DX2                !
 ! R2    R(2,3)                  1.3939         estimate D2E/DX2                !
 ! R3    R(2,5)                  1.4046         estimate D2E/DX2                !
 ! R4    R(3,4)                  1.0869         estimate D2E/DX2                !
 ! R5    R(3,11)                 1.4014         estimate D2E/DX2                !
 ! R6    R(5,6)                  1.0898         estimate D2E/DX2                !
 ! R7    R(5,7)                  1.4014         estimate D2E/DX2                !
 ! R8    R(7,8)                  1.0869         estimate D2E/DX2                !
 ! R9    R(7,9)                  1.3939         estimate D2E/DX2                !
 ! R10   R(9,10)                 1.0853         estimate D2E/DX2                !
 ! R11   R(9,11)                 1.4046         estimate D2E/DX2                !
 ! R12   R(11,12)                1.0825         estimate D2E/DX2                !
 ! A1    A(1,2,3)              119.9309         estimate D2E/DX2                !
 ! A2    A(1,2,5)              119.8514         estimate D2E/DX2                !
 ! A3    A(3,2,5)              120.2149         estimate D2E/DX2                !
 ! A4    A(2,3,4)              120.206          estimate D2E/DX2                !
 ! A5    A(2,3,11)             120.0216         estimate D2E/DX2                !
 ! A6    A(4,3,11)             119.7635         estimate D2E/DX2                !
 ! A7    A(2,5,6)              120.0174         estimate D2E/DX2                !
 ! A8    A(2,5,7)              119.7617         estimate D2E/DX2                !
 ! A9    A(6,5,7)              120.212          estimate D2E/DX2                !
 ! A10   A(5,7,8)              119.7635         estimate D2E/DX2                !
 ! A11   A(5,7,9)              120.0216         estimate D2E/DX2                !
 ! A12   A(8,7,9)              120.206          estimate D2E/DX2                !
 ! A13   A(7,9,10)             120.4355         estimate D2E/DX2                !
 ! A14   A(7,9,11)             120.2149         estimate D2E/DX2                !
 ! A15   A(10,9,11)            119.3468         estimate D2E/DX2                !
 ! A16   A(3,11,9)             119.7617         estimate D2E/DX2                !
 ! A17   A(3,11,12)            119.8526         estimate D2E/DX2                !
 ! A18   A(9,11,12)            120.3768         estimate D2E/DX2                !
 ! D1    D(1,2,3,4)             -0.0024         estimate D2E/DX2                !
 ! D2    D(1,2,3,11)          -178.9202         estimate D2E/DX2                !
 ! D3    D(5,2,3,4)            179.39           estimate D2E/DX2                !
 ! D4    D(5,2,3,11)             0.4722         estimate D2E/DX2                !
 ! D5    D(1,2,5,6)              0.0001         estimate D2E/DX2                !
 ! D6    D(1,2,5,7)            178.9219         estimate D2E/DX2                !
 ! D7    D(3,2,5,6)           -179.3928         estimate D2E/DX2                !
 ! D8    D(3,2,5,7)             -0.471          estimate D2E/DX2                !
 ! D9    D(2,3,11,9)            -0.4701         estimate D2E/DX2                !
 ! D10   D(2,3,11,12)         -179.3913         estimate D2E/DX2                !
 ! D11   D(4,3,11,9)          -179.3927         estimate D2E/DX2                !
 ! D12   D(4,3,11,12)            1.6861         estimate D2E/DX2                !
 ! D13   D(2,5,7,8)            179.3927         estimate D2E/DX2                !
 ! D14   D(2,5,7,9)              0.4701         estimate D2E/DX2                !
 ! D15   D(6,5,7,8)             -1.6876         estimate D2E/DX2                !
 ! D16   D(6,5,7,9)            179.3898         estimate D2E/DX2                !
 ! D17   D(5,7,9,10)           178.9154         estimate D2E/DX2                !
 ! D18   D(5,7,9,11)            -0.4722         estimate D2E/DX2                !
 ! D19   D(8,7,9,10)            -0.0023         estimate D2E/DX2                !
 ! D20   D(8,7,9,11)          -179.39           estimate D2E/DX2                !
 ! D21   D(7,9,11,3)             0.471          estimate D2E/DX2                !
 ! D22   D(7,9,11,12)          179.3865         estimate D2E/DX2                !
 ! D23   D(10,9,11,3)         -178.9233         estimate D2E/DX2                !
 ! D24   D(10,9,11,12)          -0.0078         estimate D2E/DX2                !
 --------------------------------------------------------------------------------
 Trust Radius=3.00D-01 FncErr=1.00D-07 GrdErr=1.00D-06 EigMax=2.50D+02 EigMin=1.00D-04
 Number of steps in this run=     64 maximum allowed number of steps=    100.
 GradGradGradGradGradGradGradGradGradGradGradGradGradGradGradGradGradGrad

                          Input orientation:                          
 ---------------------------------------------------------------------
 Center     Atomic      Atomic             Coordinates (Angstroms)
 Number     Number       Type             X           Y           Z
 ---------------------------------------------------------------------
      1          1           0        5.220000    6.860000    4.480000
      2          6           0        4.900000    5.820000    4.490000
      3          6           0        5.850000    4.800000    4.490000
      4          1           0        6.910000    5.040000    4.480000
      5          6           0        3.530000    5.510000    4.490000
      6          1           0        2.790000    6.310000    4.480000
      7          6           0        3.120000    4.170000    4.480000
      8          1           0        2.060000    3.930000    4.490000
      9          6           0        4.070000    3.150000    4.480000
     10          1           0        3.760000    2.110000    4.490000
     11          6           0        5.440000    3.460000    4.480000
     12          1           0        6.180000    2.670000    4.490000
 ---------------------------------------------------------------------
                    Distance matrix (angstroms):
                    1          2          3          4          5
     1  H    0.000000
     2  C    1.088164   0.000000
     3  C    2.154205   1.393879   0.000000
     4  H    2.483647   2.156061   1.086876   0.000000
     5  C    2.163030   1.404635   2.426211   3.412536   0.000000
     6  H    2.491465   2.166172   3.412301   4.311299   1.089816
     7  C    3.412638   2.427138   2.801767   3.888573   1.401356
     8  H    4.309362   3.411407   3.888573   4.975410   2.158078
     9  C    3.884147   2.796051   2.427138   3.411407   2.421012
    10  H    4.969326   3.881198   3.406494   4.302034   3.407771
    11  C    3.407110   2.421012   1.401356   2.158078   2.801910
    12  H    4.298581   3.400132   2.155412   2.479899   3.884340
                    6          7          8          9         10
     6  H    0.000000
     7  C    2.165294   0.000000
     8  H    2.489458   1.086876   0.000000
     9  C    3.409399   1.393879   2.156061   0.000000
    10  H    4.310568   2.157151   2.490462   1.085265   0.000000
    11  C    3.891658   2.426211   3.412536   1.404635   2.155226
    12  H    4.974113   3.407888   4.308364   2.163932   2.483948
                   11         12
    11  C    0.000000
    12  H    1.082497   0.000000
 Stoichiometry    C6H6
 Framework group  C1[X(C6H6)]
 Deg. of freedom    30
 Full point group                 C1      NOp   1
 Largest Abelian subgroup         C1      NOp   1
 Largest concise Abelian subgroup C1      NOp   1
                         Standard orientation:                         
 ---------------------------------------------------------------------
 Center     Atomic      Atomic             Coordinates (Angstroms)
 Number     Number       Type             X           Y           Z
 ---------------------------------------------------------------------
      1          1           0       -1.201428    2.176202    0.010469
      2          6           0       -0.677028    1.222813   -0.001925
      3          6           0       -1.400245    0.031236   -0.003458
      4          1           0       -2.486883    0.051091    0.007731
      5          6           0        0.727375    1.197312   -0.003461
      6          1           0        1.289623    2.130828    0.007745
      7          6           0        1.400808   -0.031606    0.003456
      8          1           0        2.487446   -0.051460   -0.007732
      9          6           0        0.677591   -1.223182    0.001924
     10          1           0        1.192199   -2.178601   -0.010464
     11          6           0       -0.726812   -1.197682    0.003459
     12          1           0       -1.291089   -2.121405   -0.007725
 ---------------------------------------------------------------------
 Rotational constants (GHZ):           5.6777474           5.6474956           2.8313234
 Standard basis: 6-31+G(d) (6D, 7F)
 There are   126 symmetry adapted cartesian basis functions of A   symmetry.
 There are   126 symmetry adapted basis functions of A   symmetry.
   126 basis functions,   216 primitive gaussians,   126 cartesian basis functions
    21 alpha electrons       21 beta electrons
       nuclear repulsion energy       202.7889920343 Hartrees.
 NAtoms=   12 NActive=   12 NUniq=   12 SFac= 1.00D+00 NAtFMM=   60 NAOKFM=F Big=F
 Integral buffers will be    131072 words long.
 Raffenetti 2 integral format.
 Two-electron integral symmetry is turned on.
 Nuclear repulsion after empirical dispersion term =      202.7780506649 Hartrees.
 One-electron integrals computed using PRISM.
 NBasis=   126 RedAO= T EigKep=  6.60D-06  NBF=   126
 NBsUse=   126 1.00D-06 EigRej= -1.00D+00 NBFU=   126
 ExpMin= 4.38D-02 ExpMax= 3.05D+03 ExpMxC= 4.57D+02 IAcc=3 IRadAn=         5 AccDes= 0.00D+00
 Harris functional with IExCor= 1009 and IRadAn=       5 diagonalized for initial guess.
 HarFok:  IExCor= 1009 AccDes= 0.00D+00 IRadAn=         5 IDoV= 1 UseB2=F ITyADJ=14
 ICtDFT=  3500011 ScaDFX=  1.000000  1.000000  1.000000  1.000000
 FoFCou: FMM=F IPFlag=           0 FMFlag=      100000 FMFlg1=           0
         NFxFlg=           0 DoJE=T BraDBF=F KetDBF=T FulRan=T
         wScrn=  0.000000 ICntrl=       500 IOpCl=  0 I1Cent=   200000004 NGrid=           0
         NMat0=    1 NMatS0=      1 NMatT0=    0 NMatD0=    1 NMtDS0=    0 NMtDT0=    0
 Petite list used in FoFCou.
 Keep J ints in memory in canonical form, NReq=54849649.
 Requested convergence on RMS density matrix=1.00D-08 within 128 cycles.
 Requested convergence on MAX density matrix=1.00D-06.
 Requested convergence on             energy=1.00D-06.
 No special actions if energy rises.
 SCF Done:  E(RPBE-PBE) =  -231.955304476     A.U. after   11 cycles
            NFock= 11  Conv=0.41D-08     -V/T= 2.0101

 **********************************************************************

            Population analysis using the SCF Density.

 **********************************************************************

 Orbital symmetries:
       Occupied  (A) (A) (A) (A) (A) (A) (A) (A) (A) (A) (A) (A)
                 (A) (A) (A) (A) (A) (A) (A) (A) (A)
       Virtual   (A) (A) (A) (A) (A) (A) (A) (A) (A) (A) (A) (A)
                 (A) (A) (A) (A) (A) (A) (A) (A) (A) (A) (A) (A)
                 (A) (A) (A) (A) (A) (A) (A) (A) (A) (A) (A) (A)
                 (A) (A) (A) (A) (A) (A) (A) (A) (A) (A) (A) (A)
                 (A) (A) (A) (A) (A) (A) (A) (A) (A) (A) (A) (A)
                 (A) (A) (A) (A) (A) (A) (A) (A) (A) (A) (A) (A)
                 (A) (A) (A) (A) (A) (A) (A) (A) (A) (A) (A) (A)
                 (A) (A) (A) (A) (A) (A) (A) (A) (A) (A) (A) (A)
                 (A) (A) (A) (A) (A) (A) (A) (A) (A)
 The electronic state is 1-A.
 Alpha  occ. eigenvalues --   -9.91005  -9.90926  -9.90912  -9.90897  -9.90867
 Alpha  occ. eigenvalues --   -9.90849  -0.77764  -0.67788  -0.67581  -0.54539
 Alpha  occ. eigenvalues --   -0.54384  -0.47315  -0.41410  -0.39650  -0.37661
 Alpha  occ. eigenvalues --   -0.37507  -0.32878  -0.30387  -0.30094  -0.23022
 Alpha  occ. eigenvalues --   -0.22827
 Alpha virt. eigenvalues --   -0.04209  -0.03985  -0.00373   0.01591   0.01608
 Alpha virt. eigenvalues --    0.03673   0.03682   0.05532   0.06511   0.07086
 Alpha virt. eigenvalues --    0.08213   0.08229   0.08971   0.09636   0.13064
 Alpha virt. eigenvalues --    0.13095   0.13574   0.13606   0.14272   0.14295
 Alpha virt. eigenvalues --    0.17320   0.18201   0.18329   0.18434   0.20013
 Alpha virt. eigenvalues --    0.20028   0.21950   0.22413   0.22480   0.24902
 Alpha virt. eigenvalues --    0.25061   0.26253   0.30420   0.31063   0.31406
 Alpha virt. eigenvalues --    0.31446   0.31741   0.51695   0.54181   0.55309
 Alpha virt. eigenvalues --    0.58248   0.61916   0.67617   0.67730   0.67811
 Alpha virt. eigenvalues --    0.68035   0.70496   0.70532   0.72348   0.72611
 Alpha virt. eigenvalues --    0.76246   0.78799   0.84962   0.88597   0.88677
 Alpha virt. eigenvalues --    0.92053   0.92233   0.92791   0.98879   1.02832
 Alpha virt. eigenvalues --    1.03072   1.08810   1.08939   1.12617   1.12739
 Alpha virt. eigenvalues --    1.18690   1.25937   1.32585   1.37922   1.38449
 Alpha virt. eigenvalues --    1.40748   1.41026   1.43584   1.43881   1.67860
 Alpha virt. eigenvalues --    1.74504   1.81291   1.84867   1.91181   1.91420
 Alpha virt. eigenvalues --    2.02574   2.02902   2.06861   2.07483   2.08369
 Alpha virt. eigenvalues --    2.08822   2.21310   2.22405   2.23913   2.49160
 Alpha virt. eigenvalues --    2.49618   2.55476   2.61023   2.61802   2.64559
 Alpha virt. eigenvalues --    2.65216   2.74964   2.93342   3.30299   4.13591
 Alpha virt. eigenvalues --    4.15276   4.15702   4.29024   4.29190   4.58741
          Condensed to atoms (all electrons):
               1          2          3          4          5          6
     1  H    0.535859   0.259905   0.008747  -0.005903   0.006793  -0.005670
     2  C    0.259905   5.004508   0.532300   0.008137   0.535600   0.007216
     3  C    0.008747   0.532300   5.002007   0.260269  -0.074761   0.009099
     4  H   -0.005903   0.008137   0.260269   0.536058   0.009346  -0.000159
     5  C    0.006793   0.535600  -0.074761   0.009346   4.998924   0.261809
     6  H   -0.005670   0.007216   0.009099  -0.000159   0.261809   0.534310
     7  C    0.009255  -0.075998  -0.015797  -0.006920   0.534508   0.007337
     8  H   -0.000161   0.009746  -0.007135   0.000016   0.006306  -0.005690
     9  C   -0.006708  -0.015715  -0.080979   0.009844  -0.076914   0.009245
    10  H    0.000016  -0.007144   0.010082  -0.000164   0.009476  -0.000161
    11  C    0.009367  -0.079133   0.535509   0.006502  -0.016532  -0.006592
    12  H   -0.000167   0.010392   0.004805  -0.005832  -0.007108   0.000016
               7          8          9         10         11         12
     1  H    0.009255  -0.000161  -0.006708   0.000016   0.009367  -0.000167
     2  C   -0.075998   0.009746  -0.015715  -0.007144  -0.079133   0.010392
     3  C   -0.015797  -0.007135  -0.080979   0.010082   0.535509   0.004805
     4  H   -0.006920   0.000016   0.009844  -0.000164   0.006502  -0.005832
     5  C    0.534508   0.006306  -0.076914   0.009476  -0.016532  -0.007108
     6  H    0.007337  -0.005690   0.009245  -0.000161  -0.006592   0.000016
     7  C    4.999661   0.261775   0.535835   0.007062  -0.074964   0.009607
     8  H    0.261775   0.535312   0.007568  -0.005830   0.009197  -0.000160
     9  C    0.535835   0.007568   4.999491   0.262876   0.539067   0.004356
    10  H    0.007062  -0.005830   0.262876   0.535895   0.005012  -0.005795
    11  C   -0.074964   0.009197   0.539067   0.005012   4.999331   0.265809
    12  H    0.009607  -0.000160   0.004356  -0.005795   0.265809   0.535216
 Mulliken charges:
               1
     1  H    0.188668
     2  C   -0.189815
     3  C   -0.184145
     4  H    0.188807
     5  C   -0.187449
     6  H    0.189241
     7  C   -0.191360
     8  H    0.189057
     9  C   -0.187966
    10  H    0.188676
    11  C   -0.192572
    12  H    0.188860
 Sum of Mulliken charges =  -0.00000
 Mulliken charges with hydrogens summed into heavy atoms:
               1
     2  C   -0.001147
     3  C    0.004661
     5  C    0.001792
     7  C   -0.002304
     9  C    0.000710
    11  C   -0.003712
 Electronic spatial extent (au):  <R**2>=            461.9904
 Charge=             -0.0000 electrons
 Dipole moment (field-independent basis, Debye):
    X=             -0.0057    Y=             -0.0054    Z=             -0.0000  Tot=              0.0078
 Quadrupole moment (field-independent basis, Debye-Ang):
   XX=            -32.0057   YY=            -32.0298   ZZ=            -40.2879
   XY=              0.0370   XZ=             -0.0483   YZ=              0.0887
 Traceless Quadrupole moment (field-independent basis, Debye-Ang):
   XX=              2.7688   YY=              2.7447   ZZ=             -5.5135
   XY=              0.0370   XZ=             -0.0483   YZ=              0.0887
 Octapole moment (field-independent basis, Debye-Ang**2):
  XXX=             -0.0523  YYY=             -0.0660  ZZZ=             -0.0002  XYY=             -0.0166
  XXY=             -0.0061  XXZ=              0.0001  XZZ=             -0.0081  YZZ=             -0.0255
  YYZ=              0.0001  XYZ=             -0.0001
 Hexadecapole moment (field-independent basis, Debye-Ang**3):
 XXXX=           -280.8851 YYYY=           -279.7846 ZZZZ=            -51.2246 XXXY=              0.1906
 XXXZ=             -0.3636 YYYX=              0.2052 YYYZ=              0.5545 ZZZX=             -0.0742
 ZZZY=              0.1374 XXYY=            -93.4314 XXZZ=            -66.2268 YYZZ=            -66.0609
 XXYZ=              0.1898 YYXZ=             -0.0431 ZZXY=             -0.0181
 N-N= 2.027780506649D+02 E-N=-9.422958589541D+02  KE= 2.296430121041D+02
 There are a total of      272232 grid points.
 ElSum from          density=       41.9999775110
 ElSum from atomic densities=       41.9999214284

 Hirshfeld populations at iteration   1 (CX, CA, CB, DipXYZ):
               1          2          3          4          5          6
     1  H    0.000004   0.477338   0.477338  -0.070390   0.127087   0.002298
     2  C    0.000001   3.022943   3.022943  -0.026139   0.048486   0.000478
     3  C    0.000001   3.022986   3.022986  -0.057048   0.000786  -0.000684
     4  H    0.000004   0.477171   0.477171  -0.145378   0.002460   0.001956
     5  C    0.000001   3.022481   3.022481   0.028623   0.047316  -0.000637
     6  H    0.000004   0.477080   0.477080   0.075231   0.124783   0.001956
     7  C    0.000001   3.022949   3.022949   0.056615  -0.001478   0.000678
     8  H    0.000004   0.477135   0.477135   0.145519  -0.002630  -0.001957
     9  C    0.000001   3.022807   3.022807   0.026620  -0.048609  -0.000480
    10  H    0.000004   0.477338   0.477338   0.068654  -0.128356  -0.002304
    11  C    0.000001   3.022565   3.022565  -0.028493  -0.048719   0.000646
    12  H    0.000004   0.477196   0.477196  -0.076725  -0.124600  -0.001959
       Tot   0.000027  20.999989  20.999989  -0.002911  -0.003474  -0.000009

 Dip from Atomic Chgs              0.000671   0.001350   0.000005
         Total Dipole             -0.002240  -0.002123  -0.000004

 Hirshfeld charges, spin densities, dipoles, and CM5 charges using IRadAn=      5:
              Q-H        S-H        Dx         Dy         Dz        Q-CM5   
     1  H    0.045324   0.000000  -0.070390   0.127087   0.002298   0.100466
     2  C   -0.045886   0.000000  -0.026139   0.048486   0.000478  -0.100991
     3  C   -0.045972   0.000000  -0.057048   0.000786  -0.000684  -0.101332
     4  H    0.045658   0.000000  -0.145378   0.002460   0.001956   0.100977
     5  C   -0.044961   0.000000   0.028623   0.047316  -0.000637  -0.099875
     6  H    0.045840   0.000000   0.075231   0.124783   0.001956   0.100667
     7  C   -0.045898   0.000000   0.056615  -0.001478   0.000678  -0.101149
     8  H    0.045730   0.000000   0.145519  -0.002630  -0.001957   0.101050
     9  C   -0.045614   0.000000   0.026620  -0.048609  -0.000480  -0.101078
    10  H    0.045323   0.000000   0.068654  -0.128356  -0.002304   0.100854
    11  C   -0.045129   0.000000  -0.028493  -0.048719   0.000646  -0.100981
    12  H    0.045607   0.000000  -0.076725  -0.124600  -0.001959   0.101414
       Tot   0.000022   0.000000  -0.002911  -0.003474  -0.000009   0.000022
 Hirshfeld charges with hydrogens summed into heavy atoms:
              Q-H       Q-CM5   
     2  C   -0.000563  -0.000524
     3  C   -0.000314  -0.000354
     5  C    0.000879   0.000792
     7  C   -0.000167  -0.000099
     9  C   -0.000291  -0.000224
    11  C    0.000478   0.000433
 
 EQQ=  0.00000000000     EQD=  0.00000000000     EDD= 0.683005238277E-02
 EQQ+QD+DD= 0.683005238277E-02
 
 Merz-Kollman atomic radii used.

 **********************************************************************

            Electrostatic Properties Using The SCF Density.

 **********************************************************************

       Atomic Center    1 is at  -1.201428  2.176202  0.010469
       Atomic Center    2 is at  -0.677028  1.222813 -0.001925
       Atomic Center    3 is at  -1.400245  0.031236 -0.003458
       Atomic Center    4 is at  -2.486883  0.051091  0.007731
       Atomic Center    5 is at   0.727375  1.197312 -0.003461
       Atomic Center    6 is at   1.289623  2.130828  0.007745
       Atomic Center    7 is at   1.400808 -0.031606  0.003456
       Atomic Center    8 is at   2.487446 -0.051460 -0.007732
       Atomic Center    9 is at   0.677591 -1.223182  0.001924
       Atomic Center   10 is at   1.192199 -2.178601 -0.010464
       Atomic Center   11 is at  -0.726812 -1.197682  0.003459
       Atomic Center   12 is at  -1.291089 -2.121405 -0.007725
     714 points will be used for fitting atomic charges
 Fitting point charges to electrostatic potential
 Charges from ESP fit, RMS=   0.00255 RRMS=   0.25248:
 ESP charges:
               1
     1  H    0.106850
     2  C   -0.114870
     3  C   -0.090282
     4  H    0.103136
     5  C   -0.113936
     6  H    0.109324
     7  C   -0.091217
     8  H    0.103059
     9  C   -0.115718
    10  H    0.108466
    11  C   -0.112647
    12  H    0.107835
 Sum of ESP charges =  -0.00000
 ESP charges with hydrogens summed into heavy atoms:
               1
     2  C   -0.008020
     3  C    0.012854
     5  C   -0.004612
     7  C    0.011842
     9  C   -0.007253
    11  C   -0.004812
 Charge=  -0.00000 Dipole=    -0.0021     0.0001    -0.0000 Tot=     0.0021
 -----------------------------------------------------------------

              Electrostatic Properties (Atomic Units)

 -----------------------------------------------------------------
    Center     Electric         -------- Electric Field --------
               Potential          X             Y             Z
 -----------------------------------------------------------------
    1 Atom     -1.097986
    2 Atom    -14.725925
    3 Atom    -14.726459
    4 Atom     -1.097798
    5 Atom    -14.724768
    6 Atom     -1.097045
    7 Atom    -14.726098
    8 Atom     -1.097703
    9 Atom    -14.726133
   10 Atom     -1.098181
   11 Atom    -14.725842
   12 Atom     -1.097792
 -----------------------------------------------------------------
 ******************************Gaussian NBO Version 3.1******************************
             N A T U R A L   A T O M I C   O R B I T A L   A N D
          N A T U R A L   B O N D   O R B I T A L   A N A L Y S I S
 ******************************Gaussian NBO Version 3.1******************************

       /RESON  / : Allow strongly delocalized NBO set
       /BNDIDX / : Print bond indices based on the NAO density matrix

 Analyzing the SCF density

 Job title: benzene_hessian                                                 

 Storage needed:     48252 in NPA,     64045 in NBO ( 536870096 available)
 GSVD:  LWork=        8196 too small for GESVD, short by        6624 words or        6624 for optimal perf.


 NATURAL POPULATIONS:  Natural atomic orbital occupancies 
                                                          
   NAO  Atom  No  lang   Type(AO)    Occupancy      Energy
 ----------------------------------------------------------
     1    H    1  S      Val( 1S)     0.74913       0.07910
     2    H    1  S      Ryd( 2S)     0.00092       0.54081
 
     3    C    2  S      Cor( 1S)     1.99913      -9.76338
     4    C    2  S      Val( 2S)     0.97436      -0.18109
     5    C    2  S      Ryd( 4S)     0.00076       0.96000
     6    C    2  S      Ryd( 3S)     0.00015       0.67105
     7    C    2  S      Ryd( 5S)     0.00003       3.89108
     8    C    2  px     Val( 2p)     1.09278      -0.04048
     9    C    2  px     Ryd( 4p)     0.00421       0.71124
    10    C    2  px     Ryd( 3p)     0.00020       0.33623
    11    C    2  py     Val( 2p)     1.17262      -0.04900
    12    C    2  py     Ryd( 4p)     0.00450       0.96434
    13    C    2  py     Ryd( 3p)     0.00032       0.32232
    14    C    2  pz     Val( 2p)     0.99786      -0.11154
    15    C    2  pz     Ryd( 4p)     0.00093       0.52262
    16    C    2  pz     Ryd( 3p)     0.00060       0.27418
    17    C    2  dxy    Ryd( 3d)     0.00069       2.29845
    18    C    2  dxz    Ryd( 3d)     0.00041       1.82995
    19    C    2  dyz    Ryd( 3d)     0.00031       1.75537
    20    C    2  dx2y2  Ryd( 3d)     0.00056       2.30856
    21    C    2  dz2    Ryd( 3d)     0.00036       2.19274
 
    22    C    3  S      Cor( 1S)     1.99912      -9.76246
    23    C    3  S      Val( 2S)     0.97362      -0.18009
    24    C    3  S      Ryd( 4S)     0.00076       0.96560
    25    C    3  S      Ryd( 3S)     0.00015       0.66897
    26    C    3  S      Ryd( 5S)     0.00003       3.88672
    27    C    3  px     Val( 2p)     1.20626      -0.05280
    28    C    3  px     Ryd( 4p)     0.00460       1.07690
    29    C    3  px     Ryd( 3p)     0.00037       0.31588
    30    C    3  py     Val( 2p)     1.06045      -0.03641
    31    C    3  py     Ryd( 4p)     0.00411       0.59797
    32    C    3  py     Ryd( 3p)     0.00014       0.34138
    33    C    3  pz     Val( 2p)     0.99766      -0.11142
    34    C    3  pz     Ryd( 4p)     0.00092       0.52284
    35    C    3  pz     Ryd( 3p)     0.00059       0.27366
    36    C    3  dxy    Ryd( 3d)     0.00047       2.32025
    37    C    3  dxz    Ryd( 3d)     0.00026       1.72035
    38    C    3  dyz    Ryd( 3d)     0.00047       1.86706
    39    C    3  dx2y2  Ryd( 3d)     0.00078       2.29050
    40    C    3  dz2    Ryd( 3d)     0.00036       2.19441
 
    41    H    4  S      Val( 1S)     0.74920       0.07983
    42    H    4  S      Ryd( 2S)     0.00093       0.53910
 
    43    C    5  S      Cor( 1S)     1.99914      -9.76554
    44    C    5  S      Val( 2S)     0.97693      -0.18338
    45    C    5  S      Ryd( 4S)     0.00075       0.94719
    46    C    5  S      Ryd( 3S)     0.00015       0.67352
    47    C    5  S      Ryd( 5S)     0.00003       3.90197
    48    C    5  px     Val( 2p)     1.09558      -0.04118
    49    C    5  px     Ryd( 4p)     0.00426       0.72401
    50    C    5  px     Ryd( 3p)     0.00021       0.33400
    51    C    5  py     Val( 2p)     1.16513      -0.04889
    52    C    5  py     Ryd( 4p)     0.00447       0.94838
    53    C    5  py     Ryd( 3p)     0.00032       0.32267
    54    C    5  pz     Val( 2p)     0.99749      -0.11199
    55    C    5  pz     Ryd( 4p)     0.00096       0.52225
    56    C    5  pz     Ryd( 3p)     0.00061       0.27423
    57    C    5  dxy    Ryd( 3d)     0.00071       2.28860
    58    C    5  dxz    Ryd( 3d)     0.00040       1.82382
    59    C    5  dyz    Ryd( 3d)     0.00031       1.75856
    60    C    5  dx2y2  Ryd( 3d)     0.00054       2.30857
    61    C    5  dz2    Ryd( 3d)     0.00036       2.19139
 
    62    H    6  S      Val( 1S)     0.74871       0.07773
    63    H    6  S      Ryd( 2S)     0.00088       0.54010
 
    64    C    7  S      Cor( 1S)     1.99912      -9.76274
    65    C    7  S      Val( 2S)     0.97339      -0.18006
    66    C    7  S      Ryd( 4S)     0.00076       0.96519
    67    C    7  S      Ryd( 3S)     0.00015       0.66997
    68    C    7  S      Ryd( 5S)     0.00003       3.88727
    69    C    7  px     Val( 2p)     1.20647      -0.05289
    70    C    7  px     Ryd( 4p)     0.00460       1.07733
    71    C    7  px     Ryd( 3p)     0.00037       0.31578
    72    C    7  py     Val( 2p)     1.06063      -0.03665
    73    C    7  py     Ryd( 4p)     0.00408       0.59760
    74    C    7  py     Ryd( 3p)     0.00014       0.34141
    75    C    7  pz     Val( 2p)     0.99800      -0.11153
    76    C    7  pz     Ryd( 4p)     0.00092       0.52277
    77    C    7  pz     Ryd( 3p)     0.00059       0.27367
    78    C    7  dxy    Ryd( 3d)     0.00047       2.32001
    79    C    7  dxz    Ryd( 3d)     0.00026       1.72019
    80    C    7  dyz    Ryd( 3d)     0.00047       1.86692
    81    C    7  dx2y2  Ryd( 3d)     0.00077       2.29041
    82    C    7  dz2    Ryd( 3d)     0.00036       2.19529
 
    83    H    8  S      Val( 1S)     0.74886       0.07989
    84    H    8  S      Ryd( 2S)     0.00092       0.53947
 
    85    C    9  S      Cor( 1S)     1.99913      -9.76316
    86    C    9  S      Val( 2S)     0.97395      -0.18043
    87    C    9  S      Ryd( 4S)     0.00075       0.95896
    88    C    9  S      Ryd( 3S)     0.00015       0.66910
    89    C    9  S      Ryd( 5S)     0.00003       3.89467
    90    C    9  px     Val( 2p)     1.09168      -0.04021
    91    C    9  px     Ryd( 4p)     0.00419       0.70562
    92    C    9  px     Ryd( 3p)     0.00020       0.33566
    93    C    9  py     Val( 2p)     1.17347      -0.04826
    94    C    9  py     Ryd( 4p)     0.00445       0.97148
    95    C    9  py     Ryd( 3p)     0.00032       0.32297
    96    C    9  pz     Val( 2p)     0.99808      -0.11159
    97    C    9  pz     Ryd( 4p)     0.00094       0.52251
    98    C    9  pz     Ryd( 3p)     0.00060       0.27430
    99    C    9  dxy    Ryd( 3d)     0.00068       2.29797
   100    C    9  dxz    Ryd( 3d)     0.00041       1.83011
   101    C    9  dyz    Ryd( 3d)     0.00031       1.75482
   102    C    9  dx2y2  Ryd( 3d)     0.00056       2.31116
   103    C    9  dz2    Ryd( 3d)     0.00036       2.19407
 
   104    H   10  S      Val( 1S)     0.74936       0.08129
   105    H   10  S      Ryd( 2S)     0.00092       0.53873
 
   106    C   11  S      Cor( 1S)     1.99914      -9.76429
   107    C   11  S      Val( 2S)     0.97610      -0.18195
   108    C   11  S      Ryd( 4S)     0.00072       0.94674
   109    C   11  S      Ryd( 3S)     0.00015       0.68026
   110    C   11  S      Ryd( 5S)     0.00003       3.89515
   111    C   11  px     Val( 2p)     1.09637      -0.04037
   112    C   11  px     Ryd( 4p)     0.00419       0.73036
   113    C   11  px     Ryd( 3p)     0.00021       0.33455
   114    C   11  py     Val( 2p)     1.16467      -0.04745
   115    C   11  py     Ryd( 4p)     0.00444       0.94439
   116    C   11  py     Ryd( 3p)     0.00032       0.32285
   117    C   11  pz     Val( 2p)     0.99729      -0.11186
   118    C   11  pz     Ryd( 4p)     0.00099       0.52206
   119    C   11  pz     Ryd( 3p)     0.00061       0.27461
   120    C   11  dxy    Ryd( 3d)     0.00072       2.29433
   121    C   11  dxz    Ryd( 3d)     0.00040       1.82350
   122    C   11  dyz    Ryd( 3d)     0.00031       1.75832
   123    C   11  dx2y2  Ryd( 3d)     0.00053       2.30815
   124    C   11  dz2    Ryd( 3d)     0.00036       2.19227
 
   125    H   12  S      Val( 1S)     0.74962       0.08324
   126    H   12  S      Ryd( 2S)     0.00089       0.53538

 WARNING:  Population inversion found on atom  C    2
           Population inversion found on atom  C    3
           Population inversion found on atom  C    5
           Population inversion found on atom  C    7
           Population inversion found on atom  C    9
           Population inversion found on atom  C   11


 Summary of Natural Population Analysis:                  
                                                          
                                       Natural Population 
                Natural  -----------------------------------------------
    Atom  No    Charge         Core      Valence    Rydberg      Total
 -----------------------------------------------------------------------
      H    1    0.24996      0.00000     0.74913    0.00092     0.75004
      C    2   -0.25077      1.99913     4.23762    0.01403     6.25077
      C    3   -0.25114      1.99912     4.23801    0.01401     6.25114
      H    4    0.24987      0.00000     0.74920    0.00093     0.75013
      C    5   -0.24833      1.99914     4.23512    0.01408     6.24833
      H    6    0.25041      0.00000     0.74871    0.00088     0.74959
      C    7   -0.25160      1.99912     4.23849    0.01399     6.25160
      H    8    0.25021      0.00000     0.74886    0.00092     0.74979
      C    9   -0.25027      1.99913     4.23717    0.01396     6.25027
      H   10    0.24972      0.00000     0.74936    0.00092     0.75028
      C   11   -0.24754      1.99914     4.23443    0.01397     6.24754
      H   12    0.24949      0.00000     0.74962    0.00089     0.75051
 =======================================================================
   * Total *    0.00000     11.99479    29.91573    0.08949    42.00000

                                 Natural Population      
 --------------------------------------------------------
   Core                      11.99479 ( 99.9565% of  12)
   Valence                   29.91573 ( 99.7191% of  30)
   Natural Minimal Basis     41.91051 ( 99.7869% of  42)
   Natural Rydberg Basis      0.08949 (  0.2131% of  42)
 --------------------------------------------------------

    Atom  No          Natural Electron Configuration
 ----------------------------------------------------------------------------
      H    1            1S( 0.75)
      C    2      [core]2S( 0.97)2p( 3.26)4p( 0.01)
      C    3      [core]2S( 0.97)2p( 3.26)4p( 0.01)
      H    4            1S( 0.75)
      C    5      [core]2S( 0.98)2p( 3.26)4p( 0.01)
      H    6            1S( 0.75)
      C    7      [core]2S( 0.97)2p( 3.27)4p( 0.01)
      H    8            1S( 0.75)
      C    9      [core]2S( 0.97)2p( 3.26)4p( 0.01)
      H   10            1S( 0.75)
      C   11      [core]2S( 0.98)2p( 3.26)4p( 0.01)
      H   12            1S( 0.75)


 Wiberg bond index matrix in the NAO basis:                                    

     Atom    1       2       3       4       5       6       7       8       9
     ---- ------  ------  ------  ------  ------  ------  ------  ------  ------
   1.  H  0.0000  0.9072  0.0033  0.0020  0.0031  0.0019  0.0096  0.0004  0.0004
   2.  C  0.9072  0.0000  1.4419  0.0034  1.4343  0.0031  0.0105  0.0097  0.1134
   3.  C  0.0033  1.4419  0.0000  0.9070  0.0109  0.0094  0.1120  0.0004  0.0106
   4.  H  0.0020  0.0034  0.9070  0.0000  0.0100  0.0004  0.0004  0.0006  0.0097
   5.  C  0.0031  1.4343  0.0109  0.0100  0.0000  0.9080  1.4363  0.0032  0.0110
   6.  H  0.0019  0.0031  0.0094  0.0004  0.9080  0.0000  0.0031  0.0019  0.0095
   7.  C  0.0096  0.0105  0.1120  0.0004  1.4363  0.0031  0.0000  0.9067  1.4418
   8.  H  0.0004  0.0097  0.0004  0.0006  0.0032  0.0019  0.9067  0.0000  0.0034
   9.  C  0.0004  0.1134  0.0106  0.0097  0.0110  0.0095  1.4418  0.0034  0.0000
  10.  H  0.0006  0.0004  0.0096  0.0004  0.0100  0.0004  0.0034  0.0020  0.9074
  11.  C  0.0100  0.0110  1.4360  0.0032  0.1177  0.0004  0.0108  0.0101  1.4341
  12.  H  0.0004  0.0094  0.0032  0.0019  0.0004  0.0006  0.0092  0.0004  0.0032

     Atom   10      11      12
     ---- ------  ------  ------
   1.  H  0.0006  0.0100  0.0004
   2.  C  0.0004  0.0110  0.0094
   3.  C  0.0096  1.4360  0.0032
   4.  H  0.0004  0.0032  0.0019
   5.  C  0.0100  0.1177  0.0004
   6.  H  0.0004  0.0004  0.0006
   7.  C  0.0034  0.0108  0.0092
   8.  H  0.0020  0.0101  0.0004
   9.  C  0.9074  1.4341  0.0032
  10.  H  0.0000  0.0031  0.0018
  11.  C  0.0031  0.0000  0.9087
  12.  H  0.0018  0.9087  0.0000


 Wiberg bond index, Totals by atom:                                            

     Atom    1
     ---- ------
   1.  H  0.9389
   2.  C  3.9444
   3.  C  3.9441
   4.  H  0.9390
   5.  C  3.9450
   6.  H  0.9386
   7.  C  3.9439
   8.  H  0.9388
   9.  C  3.9445
  10.  H  0.9390
  11.  C  3.9451
  12.  H  0.9391


 Atom-atom overlap-weighted NAO bond order:                                    

     Atom    1       2       3       4       5       6       7       8       9
     ---- ------  ------  ------  ------  ------  ------  ------  ------  ------
   1.  H  0.0000  0.7608  0.0105 -0.0051  0.0100 -0.0048  0.0079 -0.0001  0.0002
   2.  C  0.7608  0.0000  1.1650  0.0108  1.1537  0.0097  0.0187  0.0080 -0.0398
   3.  C  0.0105  1.1650  0.0000  0.7610  0.0197  0.0077 -0.0390  0.0002  0.0188
   4.  H -0.0051  0.0108  0.7610  0.0000  0.0080 -0.0001  0.0002  0.0000  0.0080
   5.  C  0.0100  1.1537  0.0197  0.0080  0.0000  0.7614  1.1566  0.0102  0.0201
   6.  H -0.0048  0.0097  0.0077 -0.0001  0.7614  0.0000  0.0100 -0.0049  0.0078
   7.  C  0.0079  0.0187 -0.0390  0.0002  1.1566  0.0100  0.0000  0.7608  1.1649
   8.  H -0.0001  0.0080  0.0002  0.0000  0.0102 -0.0049  0.7608  0.0000  0.0108
   9.  C  0.0002 -0.0398  0.0188  0.0080  0.0201  0.0078  1.1649  0.0108  0.0000
  10.  H  0.0000  0.0002  0.0079 -0.0001  0.0081 -0.0001  0.0109 -0.0050  0.7615
  11.  C  0.0081  0.0199  1.1557  0.0101 -0.0401  0.0002  0.0197  0.0080  1.1526
  12.  H -0.0001  0.0079  0.0102 -0.0049  0.0002  0.0000  0.0077 -0.0001  0.0103

     Atom   10      11      12
     ---- ------  ------  ------
   1.  H  0.0000  0.0081 -0.0001
   2.  C  0.0002  0.0199  0.0079
   3.  C  0.0079  1.1557  0.0102
   4.  H -0.0001  0.0101 -0.0049
   5.  C  0.0081 -0.0401  0.0002
   6.  H -0.0001  0.0002  0.0000
   7.  C  0.0109  0.0197  0.0077
   8.  H -0.0050  0.0080 -0.0001
   9.  C  0.7615  1.1526  0.0103
  10.  H  0.0000  0.0098 -0.0048
  11.  C  0.0098  0.0000  0.7633
  12.  H -0.0048  0.7633  0.0000


 Atom-atom overlap-weighted NAO bond order, Totals by atom:                    

     Atom    1
     ---- ------
   1.  H  0.7874
   2.  C  3.1150
   3.  C  3.1177
   4.  H  0.7880
   5.  C  3.1079
   6.  H  0.7870
   7.  C  3.1184
   8.  H  0.7881
   9.  C  3.1152
  10.  H  0.7885
  11.  C  3.1074
  12.  H  0.7897


 MO bond order:                                                                

     Atom    1       2       3       4       5       6       7       8       9
     ---- ------  ------  ------  ------  ------  ------  ------  ------  ------
   1.  H  0.0000  0.8108  0.1037 -0.0346 -0.0597 -0.0336  0.0618 -0.0112  0.0299
   2.  C  0.8108  0.0000 -0.0159 -0.0347  0.5675  0.0772  0.2665  0.1164 -0.3822
   3.  C  0.1037 -0.0159  0.0000 -0.2549  0.0904  0.1441 -0.3636  0.0419 -0.0966
   4.  H -0.0346 -0.0347 -0.2549  0.0000 -0.0246 -0.0113  0.0119  0.0113  0.0024
   5.  C -0.0597  0.5675  0.0904 -0.0246  0.0000  1.6233  1.0247 -0.0197  0.1885
   6.  H -0.0336  0.0772  0.1441 -0.0113  1.6233  0.0000  0.0189 -0.0338  0.1461
   7.  C  0.0618  0.2665 -0.3636  0.0119  1.0247  0.0189  0.0000  1.3060  0.0399
   8.  H -0.0112  0.1164  0.0419  0.0113 -0.0197 -0.0338  1.3060  0.0000  0.1186
   9.  C  0.0299 -0.3822 -0.0966  0.0024  0.1885  0.1461  0.0399  0.1186  0.0000
  10.  H  0.0110  0.0205  0.0384 -0.0110  0.0127 -0.0116 -0.0753 -0.0346  0.1596
  11.  C  0.0948 -0.0819  0.9340  0.0758 -0.3313  0.0466 -0.0113  0.1304  0.5023
  12.  H -0.0111 -0.0261  0.0227 -0.0332  0.0066  0.0105 -0.0449 -0.0112 -0.0021

     Atom   10      11      12
     ---- ------  ------  ------
   1.  H  0.0110  0.0948 -0.0111
   2.  C  0.0205 -0.0819 -0.0261
   3.  C  0.0384  0.9340  0.0227
   4.  H -0.0110  0.0758 -0.0332
   5.  C  0.0127 -0.3313  0.0066
   6.  H -0.0116  0.0466  0.0105
   7.  C -0.0753 -0.0113 -0.0449
   8.  H -0.0346  0.1304 -0.0112
   9.  C  0.1596  0.5023 -0.0021
  10.  H  0.0000  0.0918 -0.0330
  11.  C  0.0918  0.0000 -0.5821
  12.  H -0.0330 -0.5821  0.0000


 MO atomic valencies:                                                          

     Atom    1
     ---- ------
   1.  H  0.9619
   2.  C  1.3180
   3.  C  0.6444
   4.  H -0.3027
   5.  C  3.0785
   6.  H  1.9767
   7.  C  2.2347
   8.  H  1.6143
   9.  C  0.7063
  10.  H  0.1685
  11.  C  0.8692
  12.  H -0.7038


 NATURAL BOND ORBITAL ANALYSIS:

                       Occupancies       Lewis Structure    Low   High
           Occ.    -------------------  -----------------   occ   occ
  Cycle   Thresh.   Lewis   Non-Lewis     CR  BD  3C  LP    (L)   (NL)   Dev
 =============================================================================
   1(1)    1.90    38.76720   3.23280      6  12   0   3     3      3    0.44
   2(2)    1.90    38.76720   3.23280      6  12   0   3     3      3    0.44
   3(1)    1.80    38.76720   3.23280      6  12   0   3     3      3    0.44
   4(2)    1.80    38.76720   3.23280      6  12   0   3     3      3    0.44
   5(1)    1.70    38.76720   3.23280      6  12   0   3     3      3    0.44
   6(2)    1.70    38.76720   3.23280      6  12   0   3     3      3    0.44
   7(1)    1.60    40.10350   1.89650      6  14   0   1     1      3    0.44
   8(2)    1.60    40.76453   1.23547      6  15   0   0     0      3    0.44
   9(3)    1.60    40.76439   1.23561      6  15   0   0     0      3    0.44
  10(4)    1.60    40.10350   1.89650      6  14   0   1     1      3    0.44
  11(5)    1.60    40.76453   1.23547      6  15   0   0     0      3    0.44
  12(6)    1.60    40.76439   1.23561      6  15   0   0     0      3    0.44
  13(7)    1.60    40.10350   1.89650      6  14   0   1     1      3    0.44
  14(8)    1.60    40.76453   1.23547      6  15   0   0     0      3    0.44
  15(9)    1.60    40.76439   1.23561      6  15   0   0     0      3    0.44
  16(1)    1.50    40.76453   1.23547      6  15   0   0     0      3    0.44
  17(2)    1.50    40.76439   1.23561      6  15   0   0     0      3    0.44
  18(3)    1.50    40.10350   1.89650      6  14   0   1     1      3    0.44
  19(4)    1.50    40.76453   1.23547      6  15   0   0     0      3    0.44
  20(5)    1.50    40.76439   1.23561      6  15   0   0     0      3    0.44
  21(6)    1.50    40.10350   1.89650      6  14   0   1     1      3    0.44
  22(7)    1.50    40.76453   1.23547      6  15   0   0     0      3    0.44
  23(8)    1.50    40.76439   1.23561      6  15   0   0     0      3    0.44
  24(9)    1.50    40.10350   1.89650      6  14   0   1     1      3    0.44
  25(1)    1.60    40.76453   1.23547      6  15   0   0     0      3    0.44
 -----------------------------------------------------------------------------

 Structure accepted: RESONANCE keyword permits strongly delocalized structure

 --------------------------------------------------------
   Core                     11.99481 ( 99.957% of  12)
   Valence Lewis            28.76973 ( 95.899% of  30)
  ==================       ============================
   Total Lewis              40.76453 ( 97.058% of  42)
  -----------------------------------------------------
   Valence non-Lewis         1.17520 (  2.798% of  42)
   Rydberg non-Lewis         0.06027 (  0.143% of  42)
  ==================       ============================
   Total non-Lewis           1.23547 (  2.942% of  42)
 --------------------------------------------------------


       (Occupancy)   Bond orbital/ Coefficients/ Hybrids
 ---------------------------------------------------------------------------------
     1. (1.98158) BD ( 1) H   1 - C   2  
                ( 37.38%)   0.6114* H   1 s(100.00%)
                                            1.0000  0.0028
                ( 62.62%)   0.7913* C   2 s( 29.86%)p 2.35( 70.10%)d 0.00(  0.04%)
                                           -0.0003  0.5463  0.0127 -0.0035 -0.0016
                                           -0.4027 -0.0059  0.0030  0.7339  0.0104
                                           -0.0054  0.0065 -0.0000 -0.0002 -0.0138
                                           -0.0002  0.0004 -0.0086 -0.0110
     2. (1.98101) BD ( 1) C   2 - C   3  
                ( 49.99%)   0.7070* C   2 s( 35.25%)p 1.84( 64.72%)d 0.00(  0.03%)
                                           -0.0000  0.5937 -0.0089  0.0019  0.0009
                                           -0.4314  0.0348 -0.0031 -0.6780 -0.0002
                                            0.0124 -0.0023  0.0001  0.0001  0.0106
                                           -0.0000  0.0001 -0.0078 -0.0102
                ( 50.01%)   0.7072* C   3 s( 35.19%)p 1.84( 64.78%)d 0.00(  0.03%)
                                           -0.0000  0.5932 -0.0088  0.0020  0.0008
                                            0.4013  0.0165 -0.0125  0.6967 -0.0306
                                           -0.0030 -0.0008  0.0000  0.0001  0.0125
                                            0.0000  0.0001 -0.0041 -0.0102
     3. (1.66731) BD ( 2) C   2 - C   3  
                ( 50.01%)   0.7072* C   2 s(  0.00%)p 1.00( 99.97%)d 0.00(  0.03%)
                                           -0.0000 -0.0010 -0.0005 -0.0002 -0.0000
                                            0.0033  0.0003  0.0001 -0.0063 -0.0002
                                           -0.0002  0.9995  0.0165  0.0197 -0.0001
                                           -0.0010 -0.0181 -0.0001 -0.0000
                ( 49.99%)   0.7071* C   3 s(  0.00%)p 1.00( 99.97%)d 0.00(  0.03%)
                                           -0.0000 -0.0044 -0.0004 -0.0002 -0.0001
                                            0.0047  0.0002  0.0001  0.0021 -0.0003
                                           -0.0001  0.9995  0.0167  0.0197  0.0001
                                            0.0156  0.0091  0.0002  0.0002
     4. (1.98078) BD ( 1) C   2 - C   5  
                ( 50.04%)   0.7074* C   2 s( 34.86%)p 1.87( 65.12%)d 0.00(  0.03%)
                                           -0.0000  0.5903 -0.0078  0.0017  0.0008
                                            0.8061 -0.0171 -0.0090  0.0034 -0.0296
                                            0.0091 -0.0021  0.0001  0.0001 -0.0026
                                           -0.0001  0.0000  0.0127 -0.0101
                ( 49.96%)   0.7068* C   5 s( 34.86%)p 1.87( 65.11%)d 0.00(  0.03%)
                                           -0.0000  0.5904 -0.0081  0.0018  0.0009
                                           -0.8054  0.0166  0.0094  0.0339 -0.0305
                                            0.0089  0.0000  0.0000  0.0001  0.0016
                                           -0.0001  0.0000  0.0130 -0.0102
     5. (1.98143) BD ( 1) C   3 - H   4  
                ( 62.61%)   0.7913* C   3 s( 29.94%)p 2.34( 70.02%)d 0.00(  0.04%)
                                            0.0003 -0.5470 -0.0127  0.0035  0.0016
                                            0.8365  0.0120 -0.0061 -0.0167 -0.0002
                                            0.0001 -0.0063 -0.0001  0.0002  0.0006
                                            0.0005 -0.0000 -0.0162  0.0110
                ( 37.39%)   0.6114* H   4 s(100.00%)
                                           -1.0000 -0.0028
     6. (1.98078) BD ( 1) C   3 - C  11  
                ( 50.05%)   0.7075* C   3 s( 34.83%)p 1.87( 65.14%)d 0.00(  0.03%)
                                           -0.0000  0.5901 -0.0079  0.0017  0.0008
                                            0.3712  0.0180 -0.0121 -0.7157  0.0292
                                            0.0037  0.0024 -0.0005 -0.0000 -0.0119
                                            0.0001 -0.0002 -0.0051 -0.0101
                ( 49.95%)   0.7067* C  11 s( 34.84%)p 1.87( 65.13%)d 0.00(  0.03%)
                                           -0.0000  0.5902 -0.0081  0.0018  0.0009
                                           -0.4030  0.0346 -0.0036  0.6982 -0.0007
                                           -0.0124 -0.0024  0.0005  0.0000 -0.0098
                                            0.0001 -0.0002 -0.0086 -0.0102
     7. (1.98217) BD ( 1) C   5 - H   6  
                ( 62.63%)   0.7914* C   5 s( 30.08%)p 2.32( 69.88%)d 0.00(  0.04%)
                                           -0.0003  0.5483  0.0124 -0.0035 -0.0016
                                            0.4316  0.0060 -0.0032  0.7157  0.0100
                                           -0.0053  0.0047  0.0001 -0.0002  0.0144
                                            0.0003  0.0004 -0.0076 -0.0110
                ( 37.37%)   0.6113* H   6 s(100.00%)
                                            1.0000  0.0027
     8. (1.98077) BD ( 1) C   5 - C   7  
                ( 49.94%)   0.7067* C   5 s( 35.02%)p 1.85( 64.96%)d 0.00(  0.03%)
                                           -0.0000  0.5917 -0.0084  0.0019  0.0009
                                            0.4039 -0.0350  0.0036 -0.6964  0.0007
                                            0.0125  0.0025 -0.0005 -0.0000 -0.0099
                                            0.0001 -0.0002 -0.0087 -0.0102
                ( 50.06%)   0.7075* C   7 s( 34.85%)p 1.87( 65.12%)d 0.00(  0.03%)
                                           -0.0000  0.5903 -0.0080  0.0017  0.0008
                                           -0.3711 -0.0180  0.0122  0.7157 -0.0290
                                           -0.0037 -0.0024  0.0005  0.0000 -0.0120
                                            0.0001 -0.0002 -0.0051 -0.0102
     9. (1.66415) BD ( 2) C   5 - C   7  
                ( 49.98%)   0.7070* C   5 s(  0.00%)p 1.00( 99.97%)d 0.00(  0.03%)
                                           -0.0001 -0.0041  0.0000 -0.0000 -0.0000
                                           -0.0030  0.0001 -0.0002 -0.0017 -0.0007
                                           -0.0002  0.9995  0.0170  0.0200  0.0000
                                           -0.0001 -0.0179  0.0001  0.0003
                ( 50.02%)   0.7072* C   7 s(  0.00%)p 1.00( 99.97%)d 0.00(  0.03%)
                                            0.0001  0.0040 -0.0000 -0.0000  0.0000
                                            0.0030  0.0005  0.0003  0.0016 -0.0004
                                            0.0001  0.9995  0.0171  0.0198 -0.0001
                                           -0.0152  0.0092 -0.0000 -0.0003
    10. (1.98136) BD ( 1) C   7 - H   8  
                ( 62.63%)   0.7914* C   7 s( 29.92%)p 2.34( 70.04%)d 0.00(  0.04%)
                                           -0.0003  0.5468  0.0128 -0.0036 -0.0015
                                            0.8366  0.0119 -0.0061 -0.0168 -0.0001
                                            0.0000 -0.0047 -0.0001  0.0002 -0.0006
                                           -0.0005  0.0000  0.0162 -0.0110
                ( 37.37%)   0.6113* H   8 s(100.00%)
                                            1.0000  0.0028
    11. (1.98094) BD ( 1) C   7 - C   9  
                ( 50.01%)   0.7072* C   7 s( 35.19%)p 1.84( 64.78%)d 0.00(  0.03%)
                                           -0.0000  0.5931 -0.0088  0.0020  0.0008
                                           -0.4013 -0.0165  0.0125 -0.6967  0.0305
                                            0.0030 -0.0000 -0.0000 -0.0001  0.0125
                                            0.0000  0.0001 -0.0041 -0.0102
                ( 49.99%)   0.7071* C   9 s( 35.33%)p 1.83( 64.64%)d 0.00(  0.03%)
                                           -0.0000  0.5943 -0.0088  0.0021  0.0009
                                            0.4319 -0.0347  0.0031  0.6772  0.0007
                                           -0.0126  0.0021 -0.0001 -0.0001  0.0106
                                           -0.0000  0.0001 -0.0078 -0.0102
    12. (1.98156) BD ( 1) C   9 - H  10  
                ( 62.60%)   0.7912* C   9 s( 29.93%)p 2.34( 70.03%)d 0.00(  0.04%)
                                            0.0003 -0.5470 -0.0125  0.0036  0.0016
                                           -0.4003 -0.0052  0.0028  0.7348  0.0102
                                           -0.0055  0.0066 -0.0000 -0.0002  0.0136
                                            0.0002 -0.0004  0.0089  0.0110
                ( 37.40%)   0.6115* H  10 s(100.00%)
                                           -1.0000 -0.0028
    13. (1.98068) BD ( 1) C   9 - C  11  
                ( 50.02%)   0.7073* C   9 s( 34.70%)p 1.88( 65.27%)d 0.00(  0.03%)
                                           -0.0000  0.5890 -0.0076  0.0016  0.0008
                                           -0.8071  0.0173  0.0088 -0.0017  0.0291
                                           -0.0090  0.0023 -0.0001 -0.0001 -0.0025
                                           -0.0000  0.0001  0.0127 -0.0102
                ( 49.98%)   0.7069* C  11 s( 34.85%)p 1.87( 65.12%)d 0.00(  0.03%)
                                           -0.0000  0.5903 -0.0078  0.0018  0.0009
                                            0.8054 -0.0161 -0.0096 -0.0335  0.0307
                                           -0.0091  0.0008 -0.0000 -0.0001  0.0016
                                           -0.0001  0.0000  0.0129 -0.0101
    14. (1.66301) BD ( 2) C   9 - C  11  
                ( 50.03%)   0.7073* C   9 s(  0.00%)p 1.00( 99.97%)d 0.00(  0.03%)
                                            0.0000  0.0010  0.0005  0.0002  0.0000
                                            0.0036  0.0000  0.0001 -0.0062 -0.0004
                                           -0.0002  0.9995  0.0174  0.0200  0.0001
                                           -0.0150  0.0091  0.0001  0.0000
                ( 49.97%)   0.7069* C  11 s(  0.00%)p 1.00( 99.97%)d 0.00(  0.03%)
                                            0.0000  0.0044  0.0004  0.0002  0.0001
                                           -0.0044  0.0001  0.0000 -0.0028 -0.0003
                                           -0.0001  0.9995  0.0178  0.0202 -0.0002
                                            0.0154  0.0083  0.0000 -0.0002
    15. (1.98220) BD ( 1) C  11 - H  12  
                ( 62.58%)   0.7911* C  11 s( 30.26%)p 2.30( 69.70%)d 0.00(  0.04%)
                                            0.0003 -0.5500 -0.0118  0.0035  0.0017
                                            0.4324  0.0058 -0.0033  0.7140  0.0088
                                           -0.0053  0.0064  0.0001 -0.0002 -0.0147
                                           -0.0002 -0.0004  0.0074  0.0111
                ( 37.42%)   0.6117* H  12 s(100.00%)
                                           -1.0000 -0.0027
    16. (1.99913) CR ( 1) C   2           s(100.00%)p 0.00(  0.00%)
                                            1.0000  0.0002  0.0000 -0.0000 -0.0000
                                           -0.0001 -0.0000  0.0000  0.0002  0.0000
                                           -0.0000  0.0000  0.0000  0.0000 -0.0000
                                           -0.0000 -0.0000 -0.0000 -0.0000
    17. (1.99913) CR ( 1) C   3           s(100.00%)p 0.00(  0.00%)
                                            1.0000  0.0002  0.0000 -0.0000 -0.0000
                                           -0.0002 -0.0000  0.0000  0.0000  0.0000
                                            0.0000  0.0000  0.0000 -0.0000 -0.0000
                                           -0.0000  0.0000  0.0000 -0.0000
    18. (1.99914) CR ( 1) C   5           s(100.00%)p 0.00(  0.00%)
                                            1.0000  0.0002  0.0000 -0.0000 -0.0000
                                            0.0001  0.0000 -0.0000  0.0002  0.0000
                                           -0.0000  0.0001  0.0000  0.0000  0.0000
                                            0.0000 -0.0000 -0.0000 -0.0000
    19. (1.99913) CR ( 1) C   7           s(100.00%)p 0.00(  0.00%)
                                            1.0000  0.0002  0.0000 -0.0000 -0.0000
                                            0.0002  0.0000 -0.0000 -0.0000  0.0000
                                           -0.0000 -0.0001 -0.0000 -0.0000 -0.0000
                                            0.0000 -0.0000  0.0000 -0.0000
    20. (1.99914) CR ( 1) C   9           s(100.00%)p 0.00(  0.00%)
                                            1.0000  0.0002  0.0000 -0.0000 -0.0000
                                            0.0001  0.0000 -0.0000 -0.0002 -0.0000
                                            0.0000 -0.0000 -0.0000 -0.0000 -0.0000
                                            0.0000 -0.0000 -0.0000 -0.0000
    21. (1.99915) CR ( 1) C  11           s(100.00%)p 0.00(  0.00%)
                                            1.0000  0.0002  0.0000 -0.0000 -0.0000
                                           -0.0001 -0.0000  0.0000 -0.0002 -0.0000
                                            0.0000 -0.0000 -0.0000  0.0000  0.0000
                                            0.0000  0.0000 -0.0000 -0.0000
    22. (0.00092) RY*( 1) H   1           s(100.00%)
                                           -0.0028  1.0000
    23. (0.00455) RY*( 1) C   2           s(  1.68%)p53.11( 89.04%)d 5.54(  9.28%)
                                           -0.0000 -0.0113  0.1174  0.0432  0.0314
                                           -0.0130  0.4541 -0.0100  0.0224 -0.8265
                                            0.0168 -0.0001  0.0000  0.0034  0.2539
                                            0.0001  0.0003  0.1635  0.0406
    24. (0.00254) RY*( 2) C   2           s(  0.02%)p99.99( 97.68%)d99.99(  2.30%)
                                           -0.0000  0.0007  0.0145 -0.0022  0.0006
                                           -0.0327 -0.8545  0.1379 -0.0190 -0.4694
                                            0.0763  0.0002  0.0002  0.0002  0.0780
                                            0.0041  0.0024 -0.1301 -0.0005
    25. (0.00075) RY*( 3) C   2           s(  0.26%)p99.99( 85.96%)d53.78( 13.78%)
                                            0.0000  0.0003  0.0465  0.0196  0.0036
                                            0.0004 -0.0033  0.0025 -0.0009  0.0046
                                           -0.0006  0.0154 -0.8265 -0.4199  0.0020
                                           -0.0929 -0.3593  0.0013 -0.0061
    26. (0.00053) RY*( 4) C   2           s(  0.09%)p64.53(  5.83%)d99.99( 94.08%)
                                            0.0000  0.0001  0.0282  0.0104  0.0013
                                            0.0004  0.0016 -0.0046 -0.0005  0.0051
                                           -0.0054  0.0138 -0.2115 -0.1153 -0.0003
                                            0.8848  0.3975  0.0010 -0.0032
    27. (0.00040) RY*( 5) C   2           s( 95.87%)p 0.04(  3.47%)d 0.01(  0.66%)
                                            0.0000  0.0045  0.9460  0.2492  0.0415
                                            0.0095 -0.0444  0.0634 -0.0180  0.1049
                                           -0.1203 -0.0007  0.0460  0.0261 -0.0346
                                           -0.0242  0.0097 -0.0095 -0.0682
    28. (0.00015) RY*( 6) C   2           s( 73.73%)p 0.06(  4.48%)d 0.30( 21.79%)
                                           -0.0000 -0.0009 -0.2421  0.8002 -0.1958
                                           -0.0007 -0.0297  0.1456  0.0093  0.1039
                                           -0.1071 -0.0001 -0.0034  0.0183  0.3803
                                           -0.0045  0.0073  0.0983 -0.2522
    29. (0.00014) RY*( 7) C   2           s(  1.51%)p16.59( 25.04%)d48.67( 73.45%)
                                           -0.0000 -0.0001 -0.0417  0.1090 -0.0384
                                           -0.0229 -0.1888 -0.3868 -0.0114 -0.0849
                                           -0.2393  0.0000 -0.0008  0.0026 -0.4097
                                           -0.0034 -0.0005  0.7515 -0.0437
    30. (0.00004) RY*( 8) C   2           s( 26.32%)p 1.94( 50.94%)d 0.86( 22.75%)
    31. (0.00003) RY*( 9) C   2           s(  0.08%)p99.99( 76.56%)d99.99( 23.36%)
    32. (0.00001) RY*(10) C   2           s( 16.01%)p 0.51(  8.14%)d 4.74( 75.85%)
    33. (0.00001) RY*(11) C   2           s( 43.51%)p 1.02( 44.38%)d 0.28( 12.11%)
    34. (0.00000) RY*(12) C   2           s(  0.02%)p99.99(  7.98%)d99.99( 92.00%)
    35. (0.00000) RY*(13) C   2           s(  0.03%)p99.99( 99.94%)d 0.72(  0.02%)
    36. (0.00000) RY*(14) C   2           s( 40.91%)p 0.02(  0.66%)d 1.43( 58.43%)
    37. (0.00453) RY*( 1) C   3           s(  1.58%)p56.30( 89.04%)d 5.93(  9.38%)
                                           -0.0000 -0.0112  0.1130  0.0443  0.0307
                                           -0.0259  0.9429 -0.0187  0.0008 -0.0194
                                            0.0016 -0.0000 -0.0009  0.0043  0.0113
                                           -0.0006 -0.0026 -0.3034  0.0398
    38. (0.00255) RY*( 2) C   3           s(  0.01%)p99.99( 97.73%)d99.99(  2.26%)
                                           -0.0000  0.0006  0.0102 -0.0023  0.0004
                                            0.0013  0.0198 -0.0021  0.0379  0.9753
                                           -0.1554  0.0001  0.0007  0.0009  0.1502
                                           -0.0009  0.0006  0.0077  0.0000
    39. (0.00074) RY*( 3) C   3           s(  0.00%)p 1.00( 86.24%)d 0.16( 13.76%)
                                           -0.0000 -0.0002  0.0006  0.0015  0.0002
                                           -0.0004  0.0002 -0.0106  0.0006  0.0029
                                            0.0053  0.0155 -0.8277 -0.4206 -0.0065
                                            0.2760  0.2476 -0.0044  0.0035
    40. (0.00054) RY*( 4) C   3           s(  0.88%)p 6.65(  5.86%)d99.99( 93.26%)
                                            0.0000  0.0005  0.0894  0.0273  0.0080
                                            0.0019 -0.0147  0.0185  0.0004  0.0016
                                            0.0072  0.0137 -0.2114 -0.1143 -0.0002
                                            0.0563 -0.9641 -0.0018 -0.0012
    41. (0.00040) RY*( 5) C   3           s( 95.46%)p 0.03(  3.04%)d 0.02(  1.50%)
                                            0.0000  0.0044  0.9440  0.2484  0.0418
                                            0.0202 -0.1080  0.1333 -0.0001 -0.0057
                                           -0.0004 -0.0008  0.0237  0.0030 -0.0104
                                           -0.0050  0.0933  0.0367 -0.0693
    42. (0.00014) RY*( 6) C   3           s(  0.03%)p99.99( 24.57%)d99.99( 75.40%)
                                            0.0000 -0.0001  0.0029  0.0164  0.0030
                                           -0.0007 -0.0056 -0.0059 -0.0258 -0.2044
                                           -0.4502  0.0000  0.0049 -0.0211  0.8677
                                            0.0148 -0.0009  0.0297  0.0005
    43. (0.00015) RY*( 7) C   3           s( 74.94%)p 0.05(  3.98%)d 0.28( 21.08%)
                                           -0.0000 -0.0008 -0.2435  0.8063 -0.2000
                                           -0.0085 -0.1109  0.1649  0.0004  0.0096
                                           -0.0033  0.0002  0.0060 -0.0082  0.0002
                                            0.0017  0.0041 -0.3815 -0.2555
    44. (0.00004) RY*( 8) C   3           s( 26.65%)p 1.90( 50.73%)d 0.85( 22.62%)
    45. (0.00003) RY*( 9) C   3           s(  0.00%)p 1.00( 77.73%)d 0.29( 22.26%)
    46. (0.00001) RY*(10) C   3           s( 73.66%)p 0.22( 16.35%)d 0.14(  9.99%)
    47. (0.00000) RY*(11) C   3           s(  0.00%)p 1.00(  7.95%)d11.58( 92.05%)
    48. (0.00000) RY*(12) C   3           s(  0.04%)p99.99( 99.89%)d 2.00(  0.07%)
    49. (0.00001) RY*(13) C   3           s( 14.08%)p 0.69(  9.78%)d 5.41( 76.15%)
    50. (0.00000) RY*(14) C   3           s( 12.70%)p 2.14( 27.21%)d 4.73( 60.08%)
    51. (0.00093) RY*( 1) H   4           s(100.00%)
                                           -0.0028  1.0000
    52. (0.00453) RY*( 1) C   5           s(  1.71%)p51.97( 89.02%)d 5.41(  9.26%)
                                            0.0000 -0.0116  0.1192  0.0425  0.0313
                                            0.0134 -0.4889  0.0115  0.0222 -0.8062
                                            0.0196 -0.0005 -0.0014  0.0041 -0.2666
                                            0.0022 -0.0008  0.1412  0.0403
    53. (0.00255) RY*( 2) C   5           s(  0.00%)p 1.00( 97.73%)d 0.02(  2.27%)
                                            0.0000  0.0002  0.0021  0.0001 -0.0002
                                            0.0327  0.8338 -0.1355 -0.0199 -0.5058
                                            0.0810 -0.0003 -0.0011 -0.0012 -0.0694
                                            0.0004 -0.0016 -0.1336 -0.0001
    54. (0.00076) RY*( 3) C   5           s(  0.05%)p99.99( 89.07%)d99.99( 10.89%)
                                           -0.0000 -0.0001  0.0199  0.0079  0.0026
                                           -0.0006 -0.0010 -0.0038  0.0003  0.0059
                                            0.0074  0.0170 -0.8415 -0.4267 -0.0067
                                            0.0140 -0.3295 -0.0019  0.0039
    55. (0.00053) RY*( 4) C   5           s(  0.78%)p 4.07(  3.18%)d99.99( 96.04%)
                                           -0.0000  0.0006  0.0846  0.0243  0.0070
                                           -0.0010  0.0066 -0.0145 -0.0016  0.0123
                                           -0.0177 -0.0125  0.1559  0.0812  0.0021
                                            0.8645 -0.4616  0.0051 -0.0029
    56. (0.00040) RY*( 5) C   5           s( 95.11%)p 0.04(  3.45%)d 0.02(  1.44%)
                                           -0.0000  0.0047  0.9439  0.2419  0.0407
                                           -0.0102  0.0588 -0.0721 -0.0173  0.0991
                                           -0.1248  0.0009  0.0069 -0.0066  0.0268
                                           -0.0800  0.0489 -0.0099 -0.0692
    57. (0.00014) RY*( 6) C   5           s( 73.88%)p 0.05(  4.00%)d 0.30( 22.12%)
                                            0.0000 -0.0009 -0.2412  0.8009 -0.1982
                                            0.0018  0.0358 -0.1270  0.0088  0.1026
                                           -0.1090  0.0002  0.0054 -0.0061 -0.3823
                                           -0.0033  0.0018  0.0924 -0.2579
    58. (0.00014) RY*( 7) C   5           s(  0.91%)p28.44( 26.01%)d79.87( 73.07%)
                                            0.0000 -0.0001 -0.0308  0.0870 -0.0252
                                            0.0227  0.1826  0.3900 -0.0125 -0.0962
                                           -0.2535  0.0000  0.0058 -0.0217  0.3574
                                           -0.0087 -0.0117  0.7757 -0.0310
    59. (0.00004) RY*( 8) C   5           s( 25.95%)p 1.93( 50.03%)d 0.93( 24.01%)
    60. (0.00003) RY*( 9) C   5           s(  0.08%)p99.99( 75.90%)d99.99( 24.02%)
    61. (0.00001) RY*(10) C   5           s( 16.47%)p 0.49(  8.02%)d 4.58( 75.50%)
    62. (0.00001) RY*(11) C   5           s( 42.43%)p 1.07( 45.22%)d 0.29( 12.35%)
    63. (0.00000) RY*(12) C   5           s(  0.00%)p 1.00(  7.85%)d11.73( 92.14%)
    64. (0.00000) RY*(13) C   5           s(  0.04%)p99.99( 99.89%)d 1.92(  0.07%)
    65. (0.00000) RY*(14) C   5           s( 42.62%)p 0.02(  0.70%)d 1.33( 56.68%)
    66. (0.00089) RY*( 1) H   6           s(100.00%)
                                           -0.0027  1.0000
    67. (0.00453) RY*( 1) C   7           s(  1.65%)p54.05( 88.98%)d 5.69(  9.37%)
                                           -0.0000 -0.0112  0.1160  0.0438  0.0310
                                            0.0258 -0.9425  0.0183 -0.0008  0.0198
                                           -0.0003  0.0005  0.0013 -0.0040  0.0117
                                           -0.0005 -0.0024 -0.3033  0.0401
    68. (0.00254) RY*( 2) C   7           s(  0.02%)p99.99( 97.70%)d99.99(  2.28%)
                                            0.0000  0.0007  0.0142 -0.0026  0.0010
                                           -0.0013 -0.0197  0.0027 -0.0377 -0.9750
                                            0.1568 -0.0003 -0.0011 -0.0010  0.1506
                                           -0.0010  0.0010  0.0085 -0.0000
    69. (0.00073) RY*( 3) C   7           s(  0.04%)p99.99( 90.56%)d99.99(  9.40%)
                                            0.0000 -0.0001  0.0189  0.0074  0.0023
                                           -0.0000  0.0040  0.0052 -0.0007 -0.0037
                                           -0.0073 -0.0176  0.8473  0.4327 -0.0056
                                            0.2770 -0.1311 -0.0051  0.0038
    70. (0.00055) RY*( 4) C   7           s(  0.69%)p 2.30(  1.58%)d99.99( 97.74%)
                                            0.0000  0.0006  0.0790  0.0240  0.0069
                                           -0.0018  0.0132 -0.0206 -0.0001 -0.0000
                                           -0.0040  0.0112 -0.1122 -0.0494  0.0043
                                           -0.0520 -0.9872 -0.0003 -0.0023
    71. (0.00041) RY*( 5) C   7           s( 95.54%)p 0.03(  3.06%)d 0.01(  1.40%)
                                            0.0000  0.0044  0.9440  0.2503  0.0397
                                           -0.0203  0.1113 -0.1325  0.0003  0.0095
                                           -0.0010 -0.0007 -0.0107  0.0037 -0.0082
                                           -0.0006  0.0874  0.0356 -0.0707
    72. (0.00014) RY*( 6) C   7           s(  0.03%)p99.99( 25.80%)d99.99( 74.16%)
                                           -0.0000 -0.0001  0.0000  0.0181  0.0044
                                            0.0007  0.0055  0.0076  0.0258  0.2064
                                            0.4628 -0.0000 -0.0050  0.0213  0.8604
                                            0.0148  0.0010  0.0326  0.0026
    73. (0.00014) RY*( 7) C   7           s( 75.09%)p 0.05(  3.95%)d 0.28( 20.96%)
                                           -0.0000 -0.0008 -0.2463  0.8065 -0.1997
                                            0.0086  0.1093 -0.1649 -0.0005 -0.0111
                                            0.0054 -0.0002 -0.0058  0.0081 -0.0005
                                            0.0018  0.0042 -0.3815 -0.2531
    74. (0.00004) RY*( 8) C   7           s( 26.83%)p 1.88( 50.56%)d 0.84( 22.60%)
    75. (0.00003) RY*( 9) C   7           s(  0.02%)p99.99( 76.48%)d99.99( 23.50%)
    76. (0.00001) RY*(10) C   7           s( 73.45%)p 0.22( 16.48%)d 0.14( 10.07%)
    77. (0.00000) RY*(11) C   7           s(  0.00%)p 1.00(  7.95%)d11.57( 92.05%)
    78. (0.00000) RY*(12) C   7           s(  0.04%)p99.99( 99.89%)d 2.04(  0.08%)
    79. (0.00001) RY*(13) C   7           s( 14.03%)p 0.70(  9.82%)d 5.43( 76.15%)
    80. (0.00000) RY*(14) C   7           s( 12.59%)p 2.17( 27.28%)d 4.78( 60.13%)
    81. (0.00093) RY*( 1) H   8           s(100.00%)
                                           -0.0028  1.0000
    82. (0.00454) RY*( 1) C   9           s(  1.71%)p51.96( 89.00%)d 5.42(  9.28%)
                                           -0.0000 -0.0115  0.1192  0.0426  0.0310
                                            0.0123 -0.4554  0.0103 -0.0223  0.8256
                                           -0.0183  0.0001  0.0000 -0.0034  0.2532
                                           -0.0002  0.0001  0.1646  0.0404
    83. (0.00253) RY*( 2) C   9           s(  0.02%)p99.99( 97.66%)d99.99(  2.32%)
                                           -0.0000  0.0009  0.0124 -0.0035  0.0003
                                            0.0327  0.8536 -0.1404  0.0183  0.4706
                                           -0.0740  0.0002  0.0004  0.0002  0.0803
                                            0.0043  0.0023 -0.1294 -0.0003
    84. (0.00074) RY*( 3) C   9           s(  0.30%)p99.99( 91.44%)d27.65(  8.26%)
                                            0.0000  0.0003  0.0505  0.0206  0.0037
                                           -0.0005  0.0020 -0.0004  0.0010 -0.0060
                                            0.0020 -0.0187  0.8517  0.4343  0.0017
                                            0.1892 -0.2163  0.0018 -0.0065
    85. (0.00055) RY*( 4) C   9           s(  0.00%)p 1.00(  0.39%)d99.99( 99.61%)
                                            0.0000  0.0000  0.0059  0.0024 -0.0001
                                            0.0000  0.0036 -0.0063  0.0002  0.0009
                                           -0.0029 -0.0100  0.0578  0.0200  0.0007
                                           -0.8694 -0.4902 -0.0005 -0.0010
    86. (0.00041) RY*( 5) C   9           s( 95.86%)p 0.04(  3.50%)d 0.01(  0.64%)
                                            0.0000  0.0045  0.9474  0.2437  0.0409
                                           -0.0091  0.0473 -0.0611  0.0179 -0.1048
                                            0.1223  0.0006 -0.0447 -0.0253 -0.0348
                                           -0.0068  0.0186 -0.0097 -0.0689
    87. (0.00014) RY*( 6) C   9           s( 74.96%)p 0.05(  3.97%)d 0.28( 21.07%)
                                           -0.0000 -0.0008 -0.2411  0.8066 -0.2022
                                            0.0049  0.0639 -0.0689 -0.0070 -0.0863
                                            0.1516  0.0000  0.0036 -0.0185  0.2988
                                           -0.0034  0.0079  0.2361 -0.2562
    88. (0.00014) RY*( 7) C   9           s(  0.17%)p99.99( 25.38%)d99.99( 74.46%)
                                            0.0000 -0.0003 -0.0021  0.0407 -0.0001
                                           -0.0225 -0.1808 -0.4062 -0.0126 -0.1032
                                           -0.2115 -0.0000  0.0001 -0.0010  0.4756
[...]
   D18       -0.00039   0.00001   0.00000   0.00039   0.00039   0.00000
   D19        0.00048  -0.00001   0.00000  -0.00048  -0.00048  -0.00000
   D20        3.14149   0.00000   0.00000   0.00010   0.00010   3.14159
   D21        0.00040  -0.00001   0.00000  -0.00040  -0.00040  -0.00000
   D22       -3.14143  -0.00000   0.00000  -0.00016  -0.00016   3.14159
   D23        3.14141   0.00000   0.00000   0.00018   0.00018  -3.14159
   D24       -0.00042   0.00001   0.00000   0.00042   0.00042  -0.00000
         Item               Value     Threshold  Converged?
 Maximum Force            0.000173     0.000450     YES
 RMS     Force            0.000056     0.000300     YES
 Maximum Displacement     0.001345     0.001800     YES
 RMS     Displacement     0.000320     0.001200     YES
 Predicted change in Energy=-4.173478D-07
 Optimization completed.
    -- Stationary point found.
                           ----------------------------
                           !   Optimized Parameters   !
                           ! (Angstroms and Degrees)  !
 --------------------------                            --------------------------
 ! Name  Definition              Value          Derivative Info.                !
 --------------------------------------------------------------------------------
 ! R1    R(1,2)                  1.0956         -DE/DX =   -0.0001              !
 ! R2    R(2,3)                  1.4041         -DE/DX =    0.0001              !
 ! R3    R(2,5)                  1.4044         -DE/DX =   -0.0001              !
 ! R4    R(3,4)                  1.0956         -DE/DX =   -0.0001              !
 ! R5    R(3,11)                 1.4044         -DE/DX =   -0.0001              !
 ! R6    R(5,6)                  1.0954         -DE/DX =    0.0                 !
 ! R7    R(5,7)                  1.4043         -DE/DX =   -0.0001              !
 ! R8    R(7,8)                  1.0956         -DE/DX =   -0.0001              !
 ! R9    R(7,9)                  1.404          -DE/DX =    0.0002              !
 ! R10   R(9,10)                 1.0956         -DE/DX =   -0.0001              !
 ! R11   R(9,11)                 1.4045         -DE/DX =   -0.0001              !
 ! R12   R(11,12)                1.0955         -DE/DX =    0.0                 !
 ! A1    A(1,2,3)              120.0271         -DE/DX =    0.0                 !
 ! A2    A(1,2,5)              119.9692         -DE/DX =    0.0001              !
 ! A3    A(3,2,5)              120.0037         -DE/DX =    0.0                 !
 ! A4    A(2,3,4)              120.0287         -DE/DX =   -0.0001              !
 ! A5    A(2,3,11)             120.002          -DE/DX =    0.0                 !
 ! A6    A(4,3,11)             119.9692         -DE/DX =    0.0001              !
 ! A7    A(2,5,6)              119.9898         -DE/DX =    0.0                 !
 ! A8    A(2,5,7)              119.9944         -DE/DX =    0.0                 !
 ! A9    A(6,5,7)              120.0158         -DE/DX =    0.0                 !
 ! A10   A(5,7,8)              119.9675         -DE/DX =    0.0001              !
 ! A11   A(5,7,9)              120.003          -DE/DX =    0.0                 !
 ! A12   A(8,7,9)              120.0295         -DE/DX =    0.0                 !
 ! A13   A(7,9,10)             120.0558         -DE/DX =   -0.0001              !
 ! A14   A(7,9,11)             120.0075         -DE/DX =    0.0                 !
 ! A15   A(10,9,11)            119.9368         -DE/DX =    0.0001              !
 ! A16   A(3,11,9)             119.9894         -DE/DX =    0.0                 !
 ! A17   A(3,11,12)            120.0018         -DE/DX =    0.0                 !
 ! A18   A(9,11,12)            120.0089         -DE/DX =    0.0                 !
 ! D1    D(1,2,3,4)             -0.0275         -DE/DX =    0.0                 !
 ! D2    D(1,2,3,11)           179.9892         -DE/DX =    0.0                 !
 ! D3    D(5,2,3,4)           -179.994          -DE/DX =    0.0                 !
 ! D4    D(5,2,3,11)             0.0226         -DE/DX =    0.0                 !
 ! D5    D(1,2,5,6)              0.024          -DE/DX =    0.0                 !
 ! D6    D(1,2,5,7)            180.0115         -DE/DX =    0.0                 !
 ! D7    D(3,2,5,6)           -180.0094         -DE/DX =    0.0                 !
 ! D8    D(3,2,5,7)             -0.022          -DE/DX =    0.0                 !
 ! D9    D(2,3,11,9)            -0.0232         -DE/DX =    0.0                 !
 ! D10   D(2,3,11,12)         -180.0094         -DE/DX =    0.0                 !
 ! D11   D(4,3,11,9)           179.9935         -DE/DX =    0.0                 !
 ! D12   D(4,3,11,12)            0.0073         -DE/DX =    0.0                 !
 ! D13   D(2,5,7,8)           -179.9947         -DE/DX =    0.0                 !
 ! D14   D(2,5,7,9)              0.0219         -DE/DX =    0.0                 !
 ! D15   D(6,5,7,8)             -0.0072         -DE/DX =    0.0                 !
 ! D16   D(6,5,7,9)            180.0093         -DE/DX =    0.0                 !
 ! D17   D(5,7,9,10)           180.011          -DE/DX =    0.0                 !
 ! D18   D(5,7,9,11)            -0.0224         -DE/DX =    0.0                 !
 ! D19   D(8,7,9,10)             0.0275         -DE/DX =    0.0                 !
 ! D20   D(8,7,9,11)           179.9941         -DE/DX =    0.0                 !
 ! D21   D(7,9,11,3)             0.0231         -DE/DX =    0.0                 !
 ! D22   D(7,9,11,12)          180.0092         -DE/DX =    0.0                 !
 ! D23   D(10,9,11,3)         -180.0103         -DE/DX =    0.0                 !
 ! D24   D(10,9,11,12)          -0.0241         -DE/DX =    0.0                 !
 --------------------------------------------------------------------------------
 GradGradGradGradGradGradGradGradGradGradGradGradGradGradGradGradGradGrad


 ----------------------------------------------------------------------

 Electric dipole moment (input orientation):
 (Debye = 10**-18 statcoulomb cm , SI units = C m)
                  (au)            (Debye)         (10**-30 SI)
   Tot        0.750914D-04      0.190863D-03      0.636651D-03
   x          0.694374D-04      0.176492D-03      0.588715D-03
   y          0.285859D-04      0.726582D-04      0.242362D-03
   z          0.000000D+00      0.000000D+00      0.000000D+00

 Dipole polarizability, Alpha (input orientation).
 (esu units = cm**3 , SI units = C**2 m**2 J**-1)
 Alpha(0;0):
               (au)            (10**-24 esu)      (10**-40 SI)
   iso        0.674917D+02      0.100012D+02      0.111279D+02
   aniso      0.394336D+02      0.584345D+01      0.650172D+01
   xx         0.806338D+02      0.119487D+02      0.132947D+02
   yx        -0.264798D-02     -0.392390D-03     -0.436593D-03
   yy         0.806386D+02      0.119494D+02      0.132955D+02
   zx        -0.106372D-01     -0.157626D-02     -0.175383D-02
   zy        -0.358541D-01     -0.531303D-02     -0.591154D-02
   zz         0.412027D+02      0.610561D+01      0.679341D+01

 ----------------------------------------------------------------------

 Dipole orientation:
     1        -10.04632206          4.79614643         14.62665374
     6         -9.52412767          3.28183726         13.31504983
     6         -8.51939435          1.00858035         14.24390171
     1         -8.25615233          0.74793283         16.28087613
     6         -9.86136542          3.61479672         10.70376549
     1        -10.64554155          5.38840010          9.97959026
     6         -9.19275377          1.67416108          9.02161561
     1         -9.45603937          1.93486417          6.98465757
     6         -8.18808247         -0.59895270          9.95035298
     1         -7.66558927         -2.11389745          8.63946205
     6         -7.85073044         -0.93212326         12.56169167
     1         -7.06655014         -2.70564353         13.28638646

 Electric dipole moment (dipole orientation):
 (Debye = 10**-18 statcoulomb cm , SI units = C m)
                  (au)            (Debye)         (10**-30 SI)
   Tot        0.752766D-04      0.191334D-03      0.638222D-03
   x          0.000000D+00      0.000000D+00      0.000000D+00
   y          0.000000D+00      0.000000D+00      0.000000D+00
   z          0.752766D-04      0.191334D-03      0.638222D-03

 Dipole polarizability, Alpha (dipole orientation).
 (esu units = cm**3 , SI units = C**2 m**2 J**-1)
 Alpha(0;0):
               (au)            (10**-24 esu)      (10**-40 SI)
   iso        0.674917D+02      0.100012D+02      0.111279D+02
   aniso      0.394336D+02      0.584345D+01      0.650172D+01
   xx         0.470660D+02      0.697446D+01      0.776014D+01
   yx        -0.137926D+02     -0.204385D+01     -0.227409D+01
   yy         0.749736D+02      0.111099D+02      0.123615D+02
   zx         0.257273D+01      0.381239D+00      0.424185D+00
   zy         0.105675D+01      0.156593D+00      0.174234D+00
   zz         0.804355D+02      0.119193D+02      0.132620D+02

 ----------------------------------------------------------------------
 1\1\GINC-TCN547\Freq\RPBEPBE\6-31+G(d)\C6H6\SELSAMI\03-Sep-2020\0\\#N 
 Geom=AllCheck Guess=TCheck SCRF=Check GenChk RPBEPBE/6-31+G(d) Freq\\b
 enzene_hessian\\0,1\H,5.2197229182,6.8754655033,4.4828420703\C,4.89841
 18974,5.8280898934,4.4835793858\C,5.8545108673,4.7998577471,4.48442278
 52\H,6.922505565,5.044252529,4.4838889462\C,3.5295318399,5.5142127955,
 4.4843909472\H,2.7838026669,6.3165958799,4.4838885966\C,3.1170682739,4
 .1718121591,4.4855795587\H,2.049067222,3.9274536661,4.4861241152\C,4.0
 730798319,3.143633284,4.486420221\H,3.7522593262,2.0960581812,4.487165
 855\C,5.4420353762,3.4574048538,4.485597314\H,6.1880042152,2.655163507
 5,4.4861002048\\Version=ES64L-G16RevB.01\State=1-A\HF=-231.9558864\RMS
 D=2.108e-09\RMSF=1.318e-04\ZeroPoint=0.0979703\Thermal=0.1025036\Dipol
 e=0.0000694,0.0000286,0.0000053\DipoleDeriv=0.0472458,-0.052496,0.0000
 711,-0.0525859,-0.107931,0.0002336,0.0000139,0.0000596,0.1413984,-0.02
 79957,0.0394694,-0.0000565,0.0391643,0.0885266,-0.0001953,0.0000383,0.
 0000928,-0.1414077,0.0938391,0.0303264,-0.0000607,0.0306747,-0.0328856
 ,-0.000117,-0.0002438,-0.0001866,-0.1413877,-0.1147672,-0.0408103,0.00
 00905,-0.0407231,0.0540388,0.000084,0.0001716,0.0001197,0.1413905,0.02
 50536,-0.0697719,-0.0000144,-0.069829,0.0352987,-0.0001263,0.0000818,-
 0.000264,-0.141464,-0.0233986,0.0932782,-0.0000284,0.0933339,-0.037070
 5,0.0001214,-0.0000619,0.0001786,0.1414638,0.0938422,0.0302893,-0.0000
 651,0.0306548,-0.0328625,-0.0001176,-0.0002453,-0.000188,-0.1413548,-0
 .1147444,-0.0407983,0.0000924,-0.0407031,0.0540658,0.0000849,0.0001726
 ,0.0001216,0.1413916,-0.0279691,0.0394377,-0.0000568,0.0391728,0.08861
 28,-0.0001984,0.0000366,0.0000914,-0.1413986,0.047283,-0.0523917,0.000
 0719,-0.0526013,-0.1080118,0.0002348,0.0000163,0.0000607,0.1413901,0.0
 250469,-0.0698419,-0.0000163,-0.0698672,0.0352701,-0.0001244,0.0000849
 ,-0.000267,-0.141486,-0.0234356,0.0933091,-0.0000276,0.0933091,-0.0370
 514,0.0001203,-0.000065,0.0001813,0.1414644\Polar=80.6337727,-0.002648
 ,80.6386276,-0.0106372,-0.0358541,41.202685\Quadrupole=2.0786941,2.080
 0651,-4.1587592,-0.0036586,-0.001543,-0.0047001\PG=C01 [X(C6H6)]\NImag
 =0\\0.07992903,0.08086535,0.31862874,-0.00006567,-0.00021570,0.0234555
 2,-0.07796914,-0.07517549,0.00005468,0.65035865,-0.07515924,-0.2999190
 7,0.00017790,0.01628095,0.70016442,0.00005916,0.00019430,-0.03330173,-
 0.00013671,-0.00046672,0.12264183,0.00953539,-0.00913399,0.00000554,-0
 .21629936,0.13448388,-0.00009929,0.70218353,0.02075923,-0.01699953,0.0
 0001914,0.07967772,-0.23186476,0.00015281,0.01248295,0.64824065,-0.000
 01647,0.00001531,0.00247957,-0.00005584,0.00014114,-0.05687420,-0.0001
 4755,-0.00047194,0.12265902,0.00088845,0.00023600,-0.00000144,-0.01601
 780,-0.00727458,0.00001301,-0.30954455,-0.05828610,0.00013036,0.328993
 97,-0.00034783,0.00089654,-0.00000399,0.02261656,0.00855414,-0.0000124
 6,-0.05827169,-0.06826139,0.00004849,0.06270675,0.06948083,-0.00000057
 ,-0.00000313,-0.00368439,-0.00002220,-0.00000272,0.00247877,0.00013940
 ,0.00004680,-0.03333010,-0.00014333,-0.00006013,0.02348253,-0.00424367
 ,0.00046679,0.00000552,-0.31995637,-0.07399478,0.00016095,-0.04332505,
 0.04922390,-0.00002655,-0.00063952,0.00282894,0.00000056,0.67276297,-0
 .02944118,-0.00325184,0.00001793,-0.01915600,-0.12744390,0.00006915,0.
 01070239,0.04494957,-0.00003934,0.00413221,-0.00314015,0.00000933,-0.0
 3008289,0.67741186,0.00002227,0.00000351,0.00249010,0.00011986,0.00008
 304,-0.05697792,-0.00000062,-0.00004675,0.00663964,-0.00000246,0.00000
 902,0.00681638,-0.00014292,-0.00046910,0.12265742,0.00094041,-0.000265
 26,-0.00000113,-0.01540288,0.02353929,-0.00001744,-0.00466980,-0.00309
 437,0.00000722,-0.00094023,0.00127922,-0.00000094,-0.17928670,0.133845
 41,-0.00007585,0.18888110,0.00031307,0.00084395,-0.00000397,-0.0063685
 1,0.00792924,-0.00000295,-0.00179237,0.00087999,0.00000587,-0.00043213
 ,0.00030837,-0.00000007,0.13385277,-0.19888627,0.00010814,-0.14393790,
 0.20993686,-0.00000120,-0.00000297,-0.00368114,0.00001534,-0.00001417,
 0.00248029,0.00000455,0.00000732,0.00681101,0.00000066,-0.00000048,0.0
 0029453,-0.00008244,0.00011086,-0.03326579,0.00007986,-0.00012463,0.02
 343306,-0.00553191,-0.00131498,0.00000646,-0.00307090,-0.03394656,0.00
 002549,-0.00372592,0.01205289,-0.00001019,0.00060167,0.00043405,0.0000
 0043,-0.13520230,-0.08748899,0.00009627,0.00905403,0.02174695,-0.00001
 934,0.70227244,-0.00001027,0.00174460,0.00000327,-0.07246854,0.0046725
 7,0.00002073,0.01205337,-0.05345737,0.00003834,0.00043165,-0.00118826,
 -0.00000051,-0.03266111,-0.31231542,0.00021486,-0.00815261,-0.01650986
 ,0.00001872,0.01239703,0.64844445,0.00000396,0.00000383,0.00681272,0.0
 0006833,0.00001597,0.00663428,-0.00001025,0.00003850,-0.00664547,-0.00
 000044,0.00000035,-0.00069610,0.00004260,0.00023251,-0.05694972,0.0000
 0566,0.00001250,0.00247507,-0.00015197,-0.00047583,0.12262569,-0.00037
 232,0.00010259,0.00000020,0.00161117,-0.00183537,0.00000224,0.00060132
 ,0.00043175,-0.00000045,-0.00007001,-0.00006820,-0.00000032,-0.0053603
 6,0.00054318,0.00000248,0.00084759,-0.00025833,-0.00000090,-0.30954632
 ,-0.05827774,0.00013303,0.32900149,-0.00160862,-0.00026243,0.00000135,
 -0.00053049,-0.00539740,0.00000962,0.00043410,-0.00118820,0.00000035,-
 0.00006816,0.00021124,-0.00000145,-0.02936272,-0.00213934,0.00001410,0
 .00032134,0.00093678,-0.00000423,-0.05826203,-0.06825795,0.00004935,0.
 06269846,0.06947759,0.00000169,0.00000040,0.00029287,0.00000079,0.0000
 1088,0.00681293,0.00000035,-0.00000039,-0.00069633,-0.00000030,-0.0000
 0144,-0.00127845,0.00002654,0.00000444,0.00249177,-0.00000173,-0.00000
 386,-0.00368095,0.00014201,0.00004779,-0.03333164,-0.00014624,-0.00006
 100,0.02348305,-0.00111614,0.00055728,-0.00000071,-0.05145428,0.015506
 39,-0.00000151,-0.00306834,-0.07246457,0.00006849,0.00161111,-0.000529
 65,0.00000076,0.04882182,0.04253193,-0.00004792,0.00049554,-0.00347084
 ,0.00000557,-0.21639420,0.07980610,-0.00005523,-0.01602298,0.02261930,
 -0.00002200,0.65026796,0.00055970,0.00052994,-0.00000258,0.01551379,-0
 .00573650,-0.00000370,-0.03394610,0.00467699,0.00001604,-0.00183582,-0
 .00539737,0.00001076,0.00400847,-0.04721898,0.00005151,-0.00217029,-0.
 00428509,0.00000969,0.13460243,-0.23197764,0.00014114,-0.00727126,0.00
 855486,-0.00000280,0.01598260,0.70025333,-0.00000046,-0.00000149,-0.00
 069636,-0.00000133,-0.00000376,-0.00664506,0.00002534,0.00002054,0.006
 63543,0.00000215,0.00000952,0.00681363,-0.00000937,0.00003209,0.006636
 61,0.00000368,0.00000897,0.00680994,-0.00009864,0.00015274,-0.05684513
 ,0.00001316,-0.00001266,0.00247988,-0.00014056,-0.00046925,0.12264377,
 0.00019977,-0.00008777,-0.00000022,-0.00111646,0.00055973,-0.00000046,
 -0.00553316,-0.00001235,0.00000407,-0.00037265,-0.00160901,0.00000164,
 -0.00262393,0.00297314,-0.00000124,0.00036376,0.00118412,-0.00000120,0
 .00953679,0.02075211,-0.00001663,0.00088903,-0.00034937,-0.00000061,-0
 .07790119,-0.07501645,0.00005996,0.07987261,-0.00008781,-0.00005860,-0
 .00000079,0.00055594,0.00053022,-0.00000150,-0.00131776,0.00174388,0.0
 0000389,0.00010242,-0.00026324,0.00000040,0.00427562,-0.00115505,0.000
 00542,-0.00052721,-0.00099373,0.00000134,-0.00912952,-0.01698162,0.000
 01544,0.00023591,0.00089591,-0.00000316,-0.07505248,-0.29989591,0.0001
 9622,0.08074904,0.31860114,-0.00000020,-0.00000078,-0.00127770,-0.0000
 0055,-0.00000266,-0.00069648,0.00000655,0.00000335,0.00681217,0.000000
 20,0.00000140,0.00029211,-0.00000397,0.00000602,0.00681623,0.00000066,
 0.00000129,0.00029595,0.00000540,0.00001926,0.00247273,-0.00000149,-0.
 00000403,-0.00368568,0.00005569,0.00017980,-0.03331646,-0.00006649,-0.
 00021780,0.02346850,-0.00262320,0.00427660,-0.00000389,0.04882142,0.00
 400915,-0.00000908,-0.13520456,-0.03262110,0.00004127,-0.00535806,-0.0
 2935968,0.00002628,-0.03058309,-0.02756666,0.00002955,-0.00036461,-0.0
 0099217,-0.00000034,-0.04332523,0.04922530,-0.00002636,-0.00063887,0.0
 0282929,0.00000045,-0.31985344,-0.07395522,0.00016355,-0.00425401,0.00
 045992,0.00000535,0.67268582,0.00297321,-0.00115753,0.00000615,0.04252
 521,-0.04720354,0.00003183,-0.08744722,-0.31220341,0.00022930,0.000546
 48,-0.00213700,0.00000457,-0.02756230,-0.02659057,0.00002621,-0.000993
 01,-0.00021942,-0.00000014,0.01070134,0.04494722,-0.00003964,0.0041311
 9,-0.00313961,0.00000921,-0.01911572,-0.12743278,0.00007003,-0.0294565
 6,-0.00326784,0.00001814,-0.03009620,0.67717367,-0.00000132,0.00000540
 ,0.00681566,-0.00004782,0.00005154,0.00663686,0.00009515,0.00021209,-0
 .05696921,0.00000246,0.00001392,0.00249117,0.00002950,0.00002622,-0.00
 665817,0.00000058,0.00000003,-0.00069685,-0.00000057,-0.00004684,0.006
 63869,-0.00000239,0.00000908,0.00681754,0.00012185,0.00008372,-0.05698
 846,0.00002242,0.00000353,0.00249852,-0.00014398,-0.00046672,0.1226899
 8,0.00036331,-0.00052712,0.00000066,0.00049596,-0.00216885,0.00000364,
 0.00905049,-0.00814997,0.00000566,0.00084761,0.00032053,-0.00000172,-0
 .00036378,-0.00099254,0.00000058,0.00008179,0.00015535,-0.00000055,-0.
 00466816,-0.00309529,0.00000730,-0.00093974,0.00127890,-0.00000094,-0.
 01538586,0.02352815,-0.00001747,0.00093943,-0.00026406,-0.00000114,-0.
 17930218,0.13379358,-0.00007588,0.18888113,0.00118438,-0.00099476,0.00
 000129,-0.00347116,-0.00428543,0.00000887,0.02175245,-0.01651642,0.000
 01256,-0.00025872,0.00093630,-0.00000384,-0.00099270,-0.00021990,0.000
 00003,0.00015540,0.00005918,-0.00000132,-0.00179261,0.00087928,0.00000
 588,-0.00043218,0.00030856,-0.00000007,-0.00637034,0.00792916,-0.00000
 296,0.00031336,0.00084484,-0.00000398,0.13379077,-0.19876917,0.0001080
 3,-0.14387866,0.20982837,-0.00000118,0.00000132,0.00029487,0.00000544,
 0.00000956,0.00681042,-0.00001916,0.00001853,0.00247848,-0.00000086,-0
 .00000419,-0.00368009,-0.00000042,-0.00000011,-0.00069655,-0.00000055,
 -0.00000132,-0.00127513,0.00000465,0.00000747,0.00680885,0.00000068,-0
 .00000048,0.00029501,0.00001557,-0.00001432,0.00247222,-0.00000124,-0.
 00000300,-0.00367991,-0.00008280,0.00011106,-0.03327573,0.00007986,-0.
 00012452,0.02344754\\-0.00002762,0.00007718,0.00001292,0.00021564,-0.0
 0017224,-0.00005352,-0.00019700,0.00022384,0.00003460,0.00010478,-0.00
 003075,-0.00000188,-0.00016707,0.00006601,0.00002959,0.00002706,0.0000
 0740,0.00000032,0.00026591,-0.00021345,-0.00003384,-0.00010316,0.00003
 180,0.00000208,-0.00035356,0.00029184,0.00005380,0.00007532,-0.0001215
 4,-0.00001272,0.00013289,-0.00014625,-0.00003121,0.00002681,-0.0000138
 3,-0.00000014\\\@


 ALL MEN WHO EXPLORE
 DEPLORE
 THAT FRUSTRATING HURDLE
 THE GIRDLE.

         -- COLIN FLETCHER
 Job cpu time:       0 days  0 hours  7 minutes 39.9 seconds.
 Elapsed time:       0 days  0 hours  0 minutes 19.9 seconds.
 File lengths (MBytes):  RWF=     25 Int=      0 D2E=      0 Chk=      3 Scr=      1
 Normal termination of Gaussian 16 at Thu Sep  3 09:38:25 2020.
