benzene_hessian                                                         
Freq      RPBEPBE                                                     6-31+G(d)           
Number of atoms                            I               12
Info1-9                                    I   N=           9
          23          23        1002           0           0         100
           6          18         902
Full Title                                 C   N=           2
benzene_hessian         
Route                                      C   N=           7
#freq opt PBEPBE 6-31+G(D) EmpiricalDispersion=GD3BJ pop=(CM
5, ESP, NBOREAD)        
Charge                                     I                0
Multiplicity                               I                1
Number of electrons                        I               42
Number of alpha electrons                  I               21
Number of beta electrons                   I               21
Number of basis functions                  I              126
Number of independent functions            I              126
Number of point charges in /Mol/           I                0
Number of translation vectors              I                0
Atomic numbers                             I   N=          12
           1           6           6           1           6           1
           6           1           6           1           6           1
Nuclear charges                            R   N=          12
  1.00000000E+00  6.00000000E+00  6.00000000E+00  1.00000000E+00  6.00000000E+00
  1.00000000E+00  6.00000000E+00  1.00000000E+00  6.00000000E+00  1.00000000E+00
  6.00000000E+00  1.00000000E+00
Current cartesian coordinates              R   N=          36
 -1.83128237E-01  4.72038553E+00 -3.01255843E-04 -1.03542219E-01  2.65162023E+00
  2.23650072E-04 -2.34799420E+00  1.23656299E+00 -1.27836915E-04 -4.18040998E+00
  2.20028011E+00 -6.71163620E-05  2.24481396E+00  1.41524636E+00 -9.37301768E-05
  3.99561068E+00  2.51966555E+00 -1.14045319E-04  2.34799701E+00 -1.23656240E+00
  1.19003131E-04  4.18044197E+00 -2.20021634E+00  3.79719058E-05  1.03730496E-01
 -2.65156467E+00 -2.27356821E-04  1.82323914E-01 -4.72045679E+00  2.81916747E-04
 -2.24481469E+00 -1.41534698E+00  1.11602452E-04 -3.99598052E+00 -2.51939119E+00
  1.30538424E-04
Number of symbols in /Mol/                 I                0
Force Field                                I                0
Atom Types                                 C   N=          12
                                                            
                                                            
                        
Int Atom Types                             I   N=          12
           0           0           0           0           0           0
           0           0           0           0           0           0
MM charges                                 R   N=          12
  0.00000000E+00  0.00000000E+00  0.00000000E+00  0.00000000E+00  0.00000000E+00
  0.00000000E+00  0.00000000E+00  0.00000000E+00  0.00000000E+00  0.00000000E+00
  0.00000000E+00  0.00000000E+00
Integer atomic weights                     I   N=          12
           1          12          12           1          12           1
          12           1          12           1          12           1
Real atomic weights                        R   N=          12
  1.00782504E+00  1.20000000E+01  1.20000000E+01  1.00782504E+00  1.20000000E+01
  1.00782504E+00  1.20000000E+01  1.00782504E+00  1.20000000E+01  1.00782504E+00
  1.20000000E+01  1.00782504E+00
Atom fragment info                         I   N=          12
           0           0           0           0           0           0
           0           0           0           0           0           0
Atom residue num                           I   N=          12
           0           0           0           0           0           0
           0           0           0           0           0           0
Nuclear spins                              I   N=          12
           1           0           0           1           0           1
           0           1           0           1           0           1
Nuclear ZEff                               R   N=          12
 -1.00000000E+00 -3.60000000E+00 -3.60000000E+00 -1.00000000E+00 -3.60000000E+00
 -1.00000000E+00 -3.60000000E+00 -1.00000000E+00 -3.60000000E+00 -1.00000000E+00
 -3.60000000E+00 -1.00000000E+00
Nuclear ZNuc                               R   N=          12
  1.00000000E+00  6.00000000E+00  6.00000000E+00  1.00000000E+00  6.00000000E+00
  1.00000000E+00  6.00000000E+00  1.00000000E+00  6.00000000E+00  1.00000000E+00
  6.00000000E+00  1.00000000E+00
Nuclear QMom                               R   N=          12
  0.00000000E+00  0.00000000E+00  0.00000000E+00  0.00000000E+00  0.00000000E+00
  0.00000000E+00  0.00000000E+00  0.00000000E+00  0.00000000E+00  0.00000000E+00
  0.00000000E+00  0.00000000E+00
Nuclear GFac                               R   N=          12
  2.79284600E+00  0.00000000E+00  0.00000000E+00  2.79284600E+00  0.00000000E+00
  2.79284600E+00  0.00000000E+00  2.79284600E+00  0.00000000E+00  2.79284600E+00
  0.00000000E+00  2.79284600E+00
MicOpt                                     I   N=          12
          -1          -1          -1          -1          -1          -1
          -1          -1          -1          -1          -1          -1
Number of residues                         I                0
Number of secondary structures             I                0
Redundant internal dimensions              I   N=           4
          54          12          18          24
Redundant internal coordinate indices      I   N=         216
           1           2           0           0           2           3
           0           0           2           5           0           0
           3           4           0           0           3          11
           0           0           5           6           0           0
           5           7           0           0           7           8
           0           0           7           9           0           0
           9          10           0           0           9          11
           0           0          11          12           0           0
           1           2           3           0           1           2
           5           0           3           2           5           0
           2           3           4           0           2           3
          11           0           4           3          11           0
           2           5           6           0           2           5
           7           0           6           5           7           0
           5           7           8           0           5           7
           9           0           8           7           9           0
           7           9          10           0           7           9
          11           0          10           9          11           0
           3          11           9           0           3          11
          12           0           9          11          12           0
           1           2           3           4           1           2
           3          11           5           2           3           4
           5           2           3          11           1           2
           5           6           1           2           5           7
           3           2           5           6           3           2
           5           7           2           3          11           9
           2           3          11          12           4           3
          11           9           4           3          11          12
           2           5           7           8           2           5
           7           9           6           5           7           8
           6           5           7           9           5           7
           9          10           5           7           9          11
           8           7           9          10           8           7
           9          11           7           9          11           3
           7           9          11          12          10           9
          11           3          10           9          11          12
Redundant internal coordinates             R   N=          54
  2.07029565E+00  2.65329076E+00  2.65393994E+00  2.07038602E+00  2.65391645E+00
  2.07003162E+00  2.65381546E+00  2.07038244E+00  2.65310455E+00  2.07038445E+00
  2.65403444E+00  2.07014381E+00  2.09486729E+00  2.09385789E+00  2.09445998E+00
  2.09489677E+00  2.09443066E+00  2.09385784E+00  2.09421634E+00  2.09429741E+00
  2.09467153E+00  2.09382708E+00  2.09444761E+00  2.09491058E+00  2.09536848E+00
  2.09452546E+00  2.09329121E+00  2.09420935E+00  2.09442601E+00  2.09454992E+00
 -4.79857101E-04  3.14140391E+00 -3.14148851E+00  3.95257768E-04  4.19317409E-04
 -3.14139261E+00  3.14142831E+00 -3.83611896E-04 -4.04585528E-04  3.14142912E+00
  3.14147901E+00  1.27409781E-04 -3.14149970E+00  3.81387885E-04 -1.26375395E-04
 -3.14143059E+00 -3.14140086E+00 -3.90825223E-04  4.80403980E-04  3.14149044E+00
  4.02386332E-04 -3.14143134E+00  3.14141312E+00 -4.20600311E-04
ZRed-IntVec                                I   N=          54
           0           0           0           0           0           0
           0           0           0           0           0           0
           0           0           0           0           0           0
           0           0           0           0           0           0
           0           0           0           0           0           0
           0           0           0           0           0           0
           0           0           0           0           0           0
           0           0           0           0           0           0
           0           0           0           0           0           0
ZRed-FPVec                                 R   N=          54
  0.00000000E+00  0.00000000E+00  0.00000000E+00  0.00000000E+00  0.00000000E+00
  0.00000000E+00  0.00000000E+00  0.00000000E+00  0.00000000E+00  0.00000000E+00
  0.00000000E+00  0.00000000E+00  0.00000000E+00  0.00000000E+00  0.00000000E+00
  0.00000000E+00  0.00000000E+00  0.00000000E+00  0.00000000E+00  0.00000000E+00
  0.00000000E+00  0.00000000E+00  0.00000000E+00  0.00000000E+00  0.00000000E+00
  0.00000000E+00  0.00000000E+00  0.00000000E+00  0.00000000E+00  0.00000000E+00
  0.00000000E+00  0.00000000E+00  0.00000000E+00  0.00000000E+00  0.00000000E+00
  0.00000000E+00  0.00000000E+00  0.00000000E+00  0.00000000E+00  0.00000000E+00
  0.00000000E+00  0.00000000E+00  0.00000000E+00  0.00000000E+00  0.00000000E+00
  0.00000000E+00  0.00000000E+00  0.00000000E+00  0.00000000E+00  0.00000000E+00
  0.00000000E+00  0.00000000E+00  0.00000000E+00  0.00000000E+00
ZRed-Constraint1                           R   N=          54
  2.07029565E+00  2.65329076E+00  2.65393994E+00  2.07038602E+00  2.65391645E+00
  2.07003162E+00  2.65381546E+00  2.07038244E+00  2.65310455E+00  2.07038445E+00
  2.65403444E+00  2.07014381E+00  2.09486729E+00  2.09385789E+00  2.09445998E+00
  2.09489677E+00  2.09443066E+00  2.09385784E+00  2.09421634E+00  2.09429741E+00
  2.09467153E+00  2.09382708E+00  2.09444761E+00  2.09491058E+00  2.09536848E+00
  2.09452546E+00  2.09329121E+00  2.09420935E+00  2.09442601E+00  2.09454992E+00
 -4.79857101E-04  3.14140391E+00 -3.14148851E+00  3.95257768E-04  4.19317409E-04
 -3.14139261E+00  3.14142831E+00 -3.83611896E-04 -4.04585528E-04  3.14142912E+00
  3.14147901E+00  1.27409781E-04 -3.14149970E+00  3.81387886E-04 -1.26375395E-04
 -3.14143059E+00 -3.14140086E+00 -3.90825223E-04  4.80403980E-04  3.14149044E+00
  4.02386332E-04 -3.14143134E+00  3.14141312E+00 -4.20600311E-04
ZRed-Constraint2                           R   N=          54
  2.05633117E+00  2.63405046E+00  2.65437580E+00  2.05389846E+00  2.64817996E+00
  2.05945471E+00  2.64817996E+00  2.05389846E+00  2.63405046E+00  2.05085352E+00
  2.65437580E+00  2.04562307E+00  2.09318930E+00  2.09180095E+00  2.09814651E+00
  2.09799086E+00  2.09477287E+00  2.09026781E+00  2.09469889E+00  2.09023665E+00
  2.09809576E+00  2.09026781E+00  2.09477287E+00  2.09799086E+00  2.10199603E+00
  2.09814651E+00  2.08299396E+00  2.09023665E+00  2.09182253E+00  2.10097143E+00
 -4.21158882E-05 -3.12274660E+00  3.13094625E+00  8.24176867E-03  1.59866613E-06
  3.12277652E+00 -3.13099523E+00 -8.22030517E-03 -8.20423283E-03 -3.13096867E+00
 -3.13099271E+00  2.94281584E-02  3.13099271E+00  8.20423283E-03 -2.94547909E-02
  3.13094204E+00  3.12266367E+00 -8.24176867E-03 -4.08127273E-05 -3.13094625E+00
  8.22030517E-03  3.13088455E+00 -3.12280124E+00 -1.36994095E-04
SymInf integers                            I   N=          26
           1           1           1           1           1           0
           0           0           0           0           0           0
           0           0           0           0           0           0
           0           0           0           0           0           0
           0           0
RotTr to input orientation                 R   N=          12
 -9.66592389E-01  2.56318459E-01  3.03549377E-05  2.56318322E-01  9.66591982E-01
 -9.26066521E-04 -2.66708783E-04 -8.87348325E-04 -9.99999571E-01  8.47691502E+00
  8.47699885E+00  8.47541947E+00
Number of contracted shells                I               42
Number of primitive shells                 I               96
Pure/Cartesian d shells                    I                1
Pure/Cartesian f shells                    I                0
Highest angular momentum                   I                2
Largest degree of contraction              I                6
Shell types                                I   N=          42
           0           0           0          -1          -1          -1
           2           0          -1          -1          -1           2
           0           0           0          -1          -1          -1
           2           0           0           0          -1          -1
          -1           2           0           0           0          -1
          -1          -1           2           0           0           0
          -1          -1          -1           2           0           0
Number of primitives per shell             I   N=          42
           3           1           6           3           1           1
           1           6           3           1           1           1
           3           1           6           3           1           1
           1           3           1           6           3           1
           1           1           3           1           6           3
           1           1           1           3           1           6
           3           1           1           1           3           1
Shell to atom map                          I   N=          42
           1           1           2           2           2           2
           2           3           3           3           3           3
           4           4           5           5           5           5
           5           6           6           7           7           7
           7           7           8           8           9           9
           9           9           9          10          10          11
          11          11          11          11          12          12
Primitive exponents                        R   N=          96
  1.87311370E+01  2.82539436E+00  6.40121692E-01  1.61277759E-01  3.04752488E+03
  4.57369518E+02  1.03948685E+02  2.92101553E+01  9.28666296E+00  3.16392696E+00
  7.86827235E+00  1.88128854E+00  5.44249258E-01  1.68714478E-01  4.38000000E-02
  8.00000000E-01  3.04752488E+03  4.57369518E+02  1.03948685E+02  2.92101553E+01
  9.28666296E+00  3.16392696E+00  7.86827235E+00  1.88128854E+00  5.44249258E-01
  1.68714478E-01  4.38000000E-02  8.00000000E-01  1.87311370E+01  2.82539436E+00
  6.40121692E-01  1.61277759E-01  3.04752488E+03  4.57369518E+02  1.03948685E+02
  2.92101553E+01  9.28666296E+00  3.16392696E+00  7.86827235E+00  1.88128854E+00
  5.44249258E-01  1.68714478E-01  4.38000000E-02  8.00000000E-01  1.87311370E+01
  2.82539436E+00  6.40121692E-01  1.61277759E-01  3.04752488E+03  4.57369518E+02
  1.03948685E+02  2.92101553E+01  9.28666296E+00  3.16392696E+00  7.86827235E+00
  1.88128854E+00  5.44249258E-01  1.68714478E-01  4.38000000E-02  8.00000000E-01
  1.87311370E+01  2.82539436E+00  6.40121692E-01  1.61277759E-01  3.04752488E+03
  4.57369518E+02  1.03948685E+02  2.92101553E+01  9.28666296E+00  3.16392696E+00
  7.86827235E+00  1.88128854E+00  5.44249258E-01  1.68714478E-01  4.38000000E-02
  8.00000000E-01  1.87311370E+01  2.82539436E+00  6.40121692E-01  1.61277759E-01
  3.04752488E+03  4.57369518E+02  1.03948685E+02  2.92101553E+01  9.28666296E+00
  3.16392696E+00  7.86827235E+00  1.88128854E+00  5.44249258E-01  1.68714478E-01
  4.38000000E-02  8.00000000E-01  1.87311370E+01  2.82539436E+00  6.40121692E-01
  1.61277759E-01
Contraction coefficients                   R   N=          96
  3.34946043E-02  2.34726953E-01  8.13757326E-01  1.00000000E+00  1.83473713E-03
  1.40373228E-02  6.88426223E-02  2.32184443E-01  4.67941348E-01  3.62311985E-01
 -1.19332420E-01 -1.60854152E-01  1.14345644E+00  1.00000000E+00  1.00000000E+00
  1.00000000E+00  1.83473713E-03  1.40373228E-02  6.88426223E-02  2.32184443E-01
  4.67941348E-01  3.62311985E-01 -1.19332420E-01 -1.60854152E-01  1.14345644E+00
  1.00000000E+00  1.00000000E+00  1.00000000E+00  3.34946043E-02  2.34726953E-01
  8.13757326E-01  1.00000000E+00  1.83473713E-03  1.40373228E-02  6.88426223E-02
  2.32184443E-01  4.67941348E-01  3.62311985E-01 -1.19332420E-01 -1.60854152E-01
  1.14345644E+00  1.00000000E+00  1.00000000E+00  1.00000000E+00  3.34946043E-02
  2.34726953E-01  8.13757326E-01  1.00000000E+00  1.83473713E-03  1.40373228E-02
  6.88426223E-02  2.32184443E-01  4.67941348E-01  3.62311985E-01 -1.19332420E-01
 -1.60854152E-01  1.14345644E+00  1.00000000E+00  1.00000000E+00  1.00000000E+00
  3.34946043E-02  2.34726953E-01  8.13757326E-01  1.00000000E+00  1.83473713E-03
  1.40373228E-02  6.88426223E-02  2.32184443E-01  4.67941348E-01  3.62311985E-01
 -1.19332420E-01 -1.60854152E-01  1.14345644E+00  1.00000000E+00  1.00000000E+00
  1.00000000E+00  3.34946043E-02  2.34726953E-01  8.13757326E-01  1.00000000E+00
  1.83473713E-03  1.40373228E-02  6.88426223E-02  2.32184443E-01  4.67941348E-01
  3.62311985E-01 -1.19332420E-01 -1.60854152E-01  1.14345644E+00  1.00000000E+00
  1.00000000E+00  1.00000000E+00  3.34946043E-02  2.34726953E-01  8.13757326E-01
  1.00000000E+00
P(S=P) Contraction coefficients            R   N=          96
  0.00000000E+00  0.00000000E+00  0.00000000E+00  0.00000000E+00  0.00000000E+00
  0.00000000E+00  0.00000000E+00  0.00000000E+00  0.00000000E+00  0.00000000E+00
  6.89990666E-02  3.16423961E-01  7.44308291E-01  1.00000000E+00  1.00000000E+00
  0.00000000E+00  0.00000000E+00  0.00000000E+00  0.00000000E+00  0.00000000E+00
  0.00000000E+00  0.00000000E+00  6.89990666E-02  3.16423961E-01  7.44308291E-01
  1.00000000E+00  1.00000000E+00  0.00000000E+00  0.00000000E+00  0.00000000E+00
  0.00000000E+00  0.00000000E+00  0.00000000E+00  0.00000000E+00  0.00000000E+00
  0.00000000E+00  0.00000000E+00  0.00000000E+00  6.89990666E-02  3.16423961E-01
  7.44308291E-01  1.00000000E+00  1.00000000E+00  0.00000000E+00  0.00000000E+00
  0.00000000E+00  0.00000000E+00  0.00000000E+00  0.00000000E+00  0.00000000E+00
  0.00000000E+00  0.00000000E+00  0.00000000E+00  0.00000000E+00  6.89990666E-02
  3.16423961E-01  7.44308291E-01  1.00000000E+00  1.00000000E+00  0.00000000E+00
  0.00000000E+00  0.00000000E+00  0.00000000E+00  0.00000000E+00  0.00000000E+00
  0.00000000E+00  0.00000000E+00  0.00000000E+00  0.00000000E+00  0.00000000E+00
  6.89990666E-02  3.16423961E-01  7.44308291E-01  1.00000000E+00  1.00000000E+00
  0.00000000E+00  0.00000000E+00  0.00000000E+00  0.00000000E+00  0.00000000E+00
  0.00000000E+00  0.00000000E+00  0.00000000E+00  0.00000000E+00  0.00000000E+00
  0.00000000E+00  6.89990666E-02  3.16423961E-01  7.44308291E-01  1.00000000E+00
  1.00000000E+00  0.00000000E+00  0.00000000E+00  0.00000000E+00  0.00000000E+00
  0.00000000E+00
Coordinates of each shell                  R   N=         126
 -1.83128237E-01  4.72038553E+00 -3.01255843E-04 -1.83128237E-01  4.72038553E+00
 -3.01255843E-04 -1.03542219E-01  2.65162023E+00  2.23650072E-04 -1.03542219E-01
  2.65162023E+00  2.23650072E-04 -1.03542219E-01  2.65162023E+00  2.23650072E-04
 -1.03542219E-01  2.65162023E+00  2.23650072E-04 -1.03542219E-01  2.65162023E+00
  2.23650072E-04 -2.34799420E+00  1.23656299E+00 -1.27836915E-04 -2.34799420E+00
  1.23656299E+00 -1.27836915E-04 -2.34799420E+00  1.23656299E+00 -1.27836915E-04
 -2.34799420E+00  1.23656299E+00 -1.27836915E-04 -2.34799420E+00  1.23656299E+00
 -1.27836915E-04 -4.18040998E+00  2.20028011E+00 -6.71163620E-05 -4.18040998E+00
  2.20028011E+00 -6.71163620E-05  2.24481396E+00  1.41524636E+00 -9.37301768E-05
  2.24481396E+00  1.41524636E+00 -9.37301768E-05  2.24481396E+00  1.41524636E+00
 -9.37301768E-05  2.24481396E+00  1.41524636E+00 -9.37301768E-05  2.24481396E+00
  1.41524636E+00 -9.37301768E-05  3.99561068E+00  2.51966555E+00 -1.14045319E-04
  3.99561068E+00  2.51966555E+00 -1.14045319E-04  2.34799701E+00 -1.23656240E+00
  1.19003131E-04  2.34799701E+00 -1.23656240E+00  1.19003131E-04  2.34799701E+00
 -1.23656240E+00  1.19003131E-04  2.34799701E+00 -1.23656240E+00  1.19003131E-04
  2.34799701E+00 -1.23656240E+00  1.19003131E-04  4.18044197E+00 -2.20021634E+00
  3.79719058E-05  4.18044197E+00 -2.20021634E+00  3.79719058E-05  1.03730496E-01
 -2.65156467E+00 -2.27356821E-04  1.03730496E-01 -2.65156467E+00 -2.27356821E-04
  1.03730496E-01 -2.65156467E+00 -2.27356821E-04  1.03730496E-01 -2.65156467E+00
 -2.27356821E-04  1.03730496E-01 -2.65156467E+00 -2.27356821E-04  1.82323914E-01
 -4.72045679E+00  2.81916747E-04  1.82323914E-01 -4.72045679E+00  2.81916747E-04
 -2.24481469E+00 -1.41534698E+00  1.11602452E-04 -2.24481469E+00 -1.41534698E+00
  1.11602452E-04 -2.24481469E+00 -1.41534698E+00  1.11602452E-04 -2.24481469E+00
 -1.41534698E+00  1.11602452E-04 -2.24481469E+00 -1.41534698E+00  1.11602452E-04
 -3.99598052E+00 -2.51939119E+00  1.30538424E-04 -3.99598052E+00 -2.51939119E+00
  1.30538424E-04
Num ILSW                                   I              100
ILSW                                       I   N=         100
           0           1           0           0           2           0
           0           0           0           0        1009          -1
           5           0           0           0           2           0
           0           0           1           0           1           0
           1           0           0           0           0           0
           0           0      100000           0          -1           0
           0           0           0           0           0           0
           0           0           0           1           0           0
           0 -2000000000           1           0           0           0
           0           0         141          52           0           0
           0           0           0           0           0           0
           0           0           0           0           0           1
           0           0           0           0           0           0
           0           0           0           0           0           0
           0           0           0           0           0           0
           0           0           0           0           0           0
           0           0           0           0
Num RLSW                                   I               52
RLSW                                       R   N=          52
  1.00000000E+00  1.00000000E+00  1.00000000E+00  1.00000000E+00  0.00000000E+00
  0.00000000E+00  0.00000000E+00  1.00000000E+00  0.00000000E+00  0.00000000E+00
  0.00000000E+00  0.00000000E+00  1.00000000E+00  0.00000000E+00  0.00000000E+00
  0.00000000E+00  0.00000000E+00  1.00000000E+00  0.00000000E+00  0.00000000E+00
  0.00000000E+00  0.00000000E+00  1.00000000E+00  0.00000000E+00  0.00000000E+00
  0.00000000E+00  0.00000000E+00  1.00000000E+00  0.00000000E+00  0.00000000E+00
  0.00000000E+00  0.00000000E+00  1.00000000E+00  0.00000000E+00  0.00000000E+00
  0.00000000E+00  0.00000000E+00  0.00000000E+00  1.00000000E+00  1.00000000E+00
  0.00000000E+00  1.00000000E+00  0.00000000E+00  0.00000000E+00  0.00000000E+00
  0.00000000E+00  0.00000000E+00  0.00000000E+00  0.00000000E+00  0.00000000E+00
  0.00000000E+00  0.00000000E+00
MxBond                                     I                3
NBond                                      I   N=          12
           1           3           3           1           3           1
           3           1           3           1           3           1
IBond                                      I   N=          36
           2           0           0           1           3           5
           2           4          11           3           0           0
           2           6           7           5           0           0
           5           8           9           7           0           0
           7          10          11           9           0           0
           3           9          12          11           0           0
RBond                                      R   N=          36
  1.00000000E+00  0.00000000E+00  0.00000000E+00  1.00000000E+00  1.50000000E+00
  1.50000000E+00  1.50000000E+00  1.00000000E+00  1.50000000E+00  1.00000000E+00
  0.00000000E+00  0.00000000E+00  1.50000000E+00  1.00000000E+00  1.50000000E+00
  1.00000000E+00  0.00000000E+00  0.00000000E+00  1.50000000E+00  1.00000000E+00
  1.50000000E+00  1.00000000E+00  0.00000000E+00  0.00000000E+00  1.50000000E+00
  1.00000000E+00  1.50000000E+00  1.00000000E+00  0.00000000E+00  0.00000000E+00
  1.50000000E+00  1.50000000E+00  1.00000000E+00  1.00000000E+00  0.00000000E+00
  0.00000000E+00
Virial Ratio                               R      2.010669885467986E+00
SCF Energy                                 R     -2.319558863661801E+02
Total Energy                               R     -2.319558863661801E+02
RMS Force                                  R      1.318209418072788E-04
RMS Density                                R      2.108103651181418E-09
NImag                                      I                0
Job Status                                 I                1
Nuclear derivative order                   I                2
External E-field                           R   N=          35
  0.00000000E+00  0.00000000E+00  0.00000000E+00  0.00000000E+00  0.00000000E+00
  0.00000000E+00  0.00000000E+00  0.00000000E+00  0.00000000E+00  0.00000000E+00
  0.00000000E+00  0.00000000E+00  0.00000000E+00  0.00000000E+00  0.00000000E+00
  0.00000000E+00  0.00000000E+00  0.00000000E+00  0.00000000E+00  0.00000000E+00
  0.00000000E+00  0.00000000E+00  0.00000000E+00  0.00000000E+00  0.00000000E+00
  0.00000000E+00  0.00000000E+00  0.00000000E+00  0.00000000E+00  0.00000000E+00
  0.00000000E+00  0.00000000E+00  0.00000000E+00  0.00000000E+00  0.00000000E+00
IOpCl                                      I                0
IROHF                                      I                0
Alpha Orbital Energies                     R   N=         126
 -9.91186981E+00 -9.91169211E+00 -9.91168907E+00 -9.91133041E+00 -9.91132585E+00
 -9.91115893E+00 -7.75882350E-01 -6.75636425E-01 -6.75580190E-01 -5.43406782E-01
 -5.43390193E-01 -4.70951930E-01 -4.12936378E-01 -3.95856948E-01 -3.74940084E-01
 -3.74890380E-01 -3.27845362E-01 -3.02347463E-01 -3.02150663E-01 -2.29099781E-01
 -2.29023831E-01 -4.20472746E-02 -4.19631620E-02 -4.49665911E-03  1.55154325E-02
  1.55232440E-02  3.61228912E-02  3.61424451E-02  5.54577423E-02  6.47085697E-02
  6.96895239E-02  8.21332951E-02  8.21366044E-02  8.91993659E-02  9.44212587E-02
  1.30448122E-01  1.30452315E-01  1.35000672E-01  1.35020233E-01  1.42135900E-01
  1.42154029E-01  1.70561396E-01  1.80680881E-01  1.80788890E-01  1.83489608E-01
  1.99571471E-01  1.99584008E-01  2.17142803E-01  2.22533387E-01  2.22552784E-01
  2.46459225E-01  2.46501978E-01  2.62169392E-01  3.01684766E-01  3.10213271E-01
  3.10362670E-01  3.12761364E-01  3.12947092E-01  5.12556979E-01  5.42918316E-01
  5.47521961E-01  5.82704977E-01  6.18983025E-01  6.76619842E-01  6.76779151E-01
  6.77621706E-01  6.77647231E-01  7.04451253E-01  7.04454830E-01  7.22355758E-01
  7.22464059E-01  7.61715398E-01  7.87047172E-01  8.45197124E-01  8.81592239E-01
  8.81656540E-01  9.19056433E-01  9.19080275E-01  9.24207557E-01  9.84010147E-01
  1.02818691E+00  1.02828895E+00  1.08719691E+00  1.08756434E+00  1.12757771E+00
  1.12759566E+00  1.18648463E+00  1.25864348E+00  1.32742939E+00  1.37797241E+00
  1.37799804E+00  1.40731800E+00  1.40744790E+00  1.43524115E+00  1.43529411E+00
  1.67567350E+00  1.74124537E+00  1.80271400E+00  1.83965384E+00  1.90034807E+00
  1.90045456E+00  2.01895052E+00  2.01924272E+00  2.06831264E+00  2.06854919E+00
  2.07877175E+00  2.07893842E+00  2.21399995E+00  2.21443384E+00  2.23338883E+00
  2.48805812E+00  2.48829854E+00  2.54615151E+00  2.60045025E+00  2.60096125E+00
  2.64402073E+00  2.64436408E+00  2.74413037E+00  2.92868651E+00  3.28450203E+00
  4.12731163E+00  4.15258354E+00  4.15274300E+00  4.28936377E+00  4.28945108E+00
  4.58259448E+00
Alpha MO coefficients                      R   N=       15876
 -2.30116205E-04  1.24443764E-03  3.96367831E-01  2.09367459E-02 -3.38450643E-06
  1.23076738E-04 -1.21352652E-07 -4.04394945E-03  7.17747262E-06 -3.96487798E-04
  7.07080384E-07  1.49144644E-04  2.18836500E-05 -5.14917498E-04 -3.85931738E-06