 Entering Gaussian System, Link 0=g16
 Initial command:
 /hpc/sw/g16-B.01-avx//g16/l1.exe "/scratch-local/selsami/Gau-23295.inp" -scrdir="/scratch-local/selsami/"
 Entering Link 1 = /hpc/sw/g16-B.01-avx//g16/l1.exe PID=     23298.
  
 Copyright (c) 1988-2017, Gaussian, Inc.  All Rights Reserved.
  
 This is part of the Gaussian(R) 16 program.  It is based on
 the Gaussian(R) 09 system (copyright 2009, Gaussian, Inc.),
 the Gaussian(R) 03 system (copyright 2003, Gaussian, Inc.),
 the Gaussian(R) 98 system (copyright 1998, Gaussian, Inc.),
 the Gaussian(R) 94 system (copyright 1995, Gaussian, Inc.),
 the Gaussian 92(TM) system (copyright 1992, Gaussian, Inc.),
 the Gaussian 90(TM) system (copyright 1990, Gaussian, Inc.),
 the Gaussian 88(TM) system (copyright 1988, Gaussian, Inc.),
 the Gaussian 86(TM) system (copyright 1986, Carnegie Mellon
 University), and the Gaussian 82(TM) system (copyright 1983,
 Carnegie Mellon University). Gaussian is a federally registered
 trademark of Gaussian, Inc.
  
 This software contains proprietary and confidential information,
 including trade secrets, belonging to Gaussian, Inc.
  
 This software is provided under written license and may be
 used, copied, transmitted, or stored only in accord with that
 written license.
  
 The following legend is applicable only to US Government
 contracts under FAR:
  
                    RESTRICTED RIGHTS LEGEND
  
 Use, reproduction and disclosure by the US Government is
 subject to restrictions as set forth in subparagraphs (a)
 and (c) of the Commercial Computer Software - Restricted
 Rights clause in FAR 52.227-19.
  
 Gaussian, Inc.
 340 Quinnipiac St., Bldg. 40, Wallingford CT 06492
  
  
 ---------------------------------------------------------------
 Warning -- This program may not be used in any manner that
 competes with the business of Gaussian, Inc. or will provide
 assistance to any competitor of Gaussian, Inc.  The licensee
 of this program is prohibited from giving any competitor of
 Gaussian, Inc. access to this program.  By using this program,
 the user acknowledges that Gaussian, Inc. is engaged in the
 business of creating and licensing software in the field of
 computational chemistry and represents and warrants to the
 licensee that it is not a competitor of Gaussian, Inc. and that
 it will not use this program in any manner prohibited above.
 ---------------------------------------------------------------
  

 Cite this work as:
 Gaussian 16, Revision B.01,
 M. J. Frisch, G. W. Trucks, H. B. Schlegel, G. E. Scuseria, 
 M. A. Robb, J. R. Cheeseman, G. Scalmani, V. Barone, 
 G. A. Petersson, H. Nakatsuji, X. Li, M. Caricato, A. V. Marenich, 
 J. Bloino, B. G. Janesko, R. Gomperts, B. Mennucci, H. P. Hratchian, 
 J. V. Ortiz, A. F. Izmaylov, J. L. Sonnenberg, D. Williams-Young, 
 F. Ding, F. Lipparini, F. Egidi, J. Goings, B. Peng, A. Petrone, 
 T. Henderson, D. Ranasinghe, V. G. Zakrzewski, J. Gao, N. Rega, 
 G. Zheng, W. Liang, M. Hada, M. Ehara, K. Toyota, R. Fukuda, 
 J. Hasegawa, M. Ishida, T. Nakajima, Y. Honda, O. Kitao, H. Nakai, 
 T. Vreven, K. Throssell, J. A. Montgomery, Jr., J. E. Peralta, 
 F. Ogliaro, M. J. Bearpark, J. J. Heyd, E. N. Brothers, K. N. Kudin, 
 V. N. Staroverov, T. A. Keith, R. Kobayashi, J. Normand, 
 K. Raghavachari, A. P. Rendell, J. C. Burant, S. S. Iyengar, 
 J. Tomasi, M. Cossi, J. M. Millam, M. Klene, C. Adamo, R. Cammi, 
 J. W. Ochterski, R. L. Martin, K. Morokuma, O. Farkas, 
 J. B. Foresman, and D. J. Fox, Gaussian, Inc., Wallingford CT, 2016.
 
 ******************************************
 Gaussian 16:  ES64L-G16RevB.01 20-Dec-2017
                30-Nov-2019 
 ******************************************
 %nprocshared=24
 Will use up to   24 processors via shared memory.
 %mem=10GB
 %chk=propane_hessian.chk
 --------------------------------------------
 #freq opt PBEPBE 6-31G(D) pop=(CM5, NBOREAD)
 --------------------------------------------
 1/18=20,19=15,26=3,38=1/1,3;
 2/9=110,12=2,17=6,18=5,40=1/2;
 3/5=1,6=6,7=1,11=2,25=1,30=1,71=1,74=1009/1,2,3;
 4//1;
 5/5=2,38=5/2;
 6/7=2,8=2,9=2,10=2,28=1,40=2,79=1/1,7;
 7//1,2,3,16;
 1/18=20,19=15,26=3/3(2);
 2/9=110/2;
 99//99;
 2/9=110/2;
 3/5=1,6=6,7=1,11=2,25=1,30=1,71=1,74=1009/1,2,3;
 4/5=5,16=3,69=1/1;
 5/5=2,38=5/2;
 7//1,2,3,16;
 1/18=20,19=15,26=3/3(-5);
 2/9=110/2;
 6/7=2,8=2,9=2,10=2,19=2,28=1,40=2,79=1/1,7;
 99/9=1/99;
 ---------------
 propane_hessian
 ---------------
 Symbolic Z-matrix:
 Charge =  0 Multiplicity = 1
 C                    -5.467     1.905    -0.072 
 C                    -3.959     1.905    -0.072 
 H                    -5.856     2.951    -0.072 
 H                    -5.86      1.382    -0.976 
 H                    -5.86      1.381     0.833 
 C                    -3.4       0.505    -0.072 
 H                    -3.585     2.457    -0.974 
 H                    -3.585     2.457     0.831 
 H                    -2.283     0.532    -0.072 
 H                    -3.739    -0.054     0.833 
 H                    -3.739    -0.054    -0.977 
 

 GradGradGradGradGradGradGradGradGradGradGradGradGradGradGradGradGradGrad
 Berny optimization.
 Initialization pass.
                           ----------------------------
                           !    Initial Parameters    !
                           ! (Angstroms and Degrees)  !
 --------------------------                            --------------------------
 ! Name  Definition              Value          Derivative Info.                !
 --------------------------------------------------------------------------------
 ! R1    R(1,2)                  1.508          estimate D2E/DX2                !
 ! R2    R(1,3)                  1.116          estimate D2E/DX2                !
 ! R3    R(1,4)                  1.1159         estimate D2E/DX2                !
 ! R4    R(1,5)                  1.1172         estimate D2E/DX2                !
 ! R5    R(2,6)                  1.5075         estimate D2E/DX2                !
 ! R6    R(2,7)                  1.1217         estimate D2E/DX2                !
 ! R7    R(2,8)                  1.1225         estimate D2E/DX2                !
 ! R8    R(6,9)                  1.1173         estimate D2E/DX2                !
 ! R9    R(6,10)                 1.1164         estimate D2E/DX2                !
 ! R10   R(6,11)                 1.1164         estimate D2E/DX2                !
 ! A1    A(2,1,3)              110.3998         estimate D2E/DX2                !
 ! A2    A(2,1,4)              110.6212         estimate D2E/DX2                !
 ! A3    A(2,1,5)              110.5965         estimate D2E/DX2                !
 ! A4    A(3,1,4)              108.4533         estimate D2E/DX2                !
 ! A5    A(3,1,5)              108.4821         estimate D2E/DX2                !
 ! A6    A(4,1,5)              108.2124         estimate D2E/DX2                !
 ! A7    A(1,2,6)              111.7661         estimate D2E/DX2                !
 ! A8    A(1,2,7)              109.4769         estimate D2E/DX2                !
 ! A9    A(1,2,8)              109.4623         estimate D2E/DX2                !
 ! A10   A(6,2,7)              109.4746         estimate D2E/DX2                !
 ! A11   A(6,2,8)              109.4601         estimate D2E/DX2                !
 ! A12   A(7,2,8)              107.0859         estimate D2E/DX2                !
 ! A13   A(2,6,9)              110.3814         estimate D2E/DX2                !
 ! A14   A(2,6,10)             110.6346         estimate D2E/DX2                !
 ! A15   A(2,6,11)             110.6346         estimate D2E/DX2                !
 ! A16   A(9,6,10)             108.4004         estimate D2E/DX2                !
 ! A17   A(9,6,11)             108.4004         estimate D2E/DX2                !
 ! A18   A(10,6,11)            108.3123         estimate D2E/DX2                !
 ! D1    D(3,1,2,6)            180.0            estimate D2E/DX2                !
 ! D2    D(3,1,2,7)            -58.5345         estimate D2E/DX2                !
 ! D3    D(3,1,2,8)             58.5627         estimate D2E/DX2                !
 ! D4    D(4,1,2,6)            -59.9489         estimate D2E/DX2                !
 ! D5    D(4,1,2,7)             61.5166         estimate D2E/DX2                !
 ! D6    D(4,1,2,8)            178.6138         estimate D2E/DX2                !
 ! D7    D(5,1,2,6)             59.9289         estimate D2E/DX2                !
 ! D8    D(5,1,2,7)           -178.6056         estimate D2E/DX2                !
 ! D9    D(5,1,2,8)            -61.5083         estimate D2E/DX2                !
 ! D10   D(1,2,6,9)            180.0            estimate D2E/DX2                !
 ! D11   D(1,2,6,10)           -60.0182         estimate D2E/DX2                !
 ! D12   D(1,2,6,11)            60.0182         estimate D2E/DX2                !
 ! D13   D(7,2,6,9)             58.5332         estimate D2E/DX2                !
 ! D14   D(7,2,6,10)           178.515          estimate D2E/DX2                !
 ! D15   D(7,2,6,11)           -61.4486         estimate D2E/DX2                !
 ! D16   D(8,2,6,9)            -58.5615         estimate D2E/DX2                !
 ! D17   D(8,2,6,10)            61.4203         estimate D2E/DX2                !
 ! D18   D(8,2,6,11)          -178.5433         estimate D2E/DX2                !
 --------------------------------------------------------------------------------
 Trust Radius=3.00D-01 FncErr=1.00D-07 GrdErr=1.00D-06 EigMax=2.50D+02 EigMin=1.00D-04
 Number of steps in this run=     56 maximum allowed number of steps=    100.
 GradGradGradGradGradGradGradGradGradGradGradGradGradGradGradGradGradGrad

                          Input orientation:                          
 ---------------------------------------------------------------------
 Center     Atomic      Atomic             Coordinates (Angstroms)
 Number     Number       Type             X           Y           Z
 ---------------------------------------------------------------------
      1          6           0       -5.467000    1.905000   -0.072000
      2          6           0       -3.959000    1.905000   -0.072000
      3          1           0       -5.856000    2.951000   -0.072000
      4          1           0       -5.860000    1.382000   -0.976000
      5          1           0       -5.860000    1.381000    0.833000
      6          6           0       -3.400000    0.505000   -0.072000
      7          1           0       -3.585000    2.457000   -0.974000
      8          1           0       -3.585000    2.457000    0.831000
      9          1           0       -2.283000    0.532000   -0.072000
     10          1           0       -3.739000   -0.054000    0.833000
     11          1           0       -3.739000   -0.054000   -0.977000
 ---------------------------------------------------------------------
                    Distance matrix (angstroms):
                    1          2          3          4          5
     1  C    0.000000
     2  C    1.508000   0.000000
     3  H    1.115991   2.166270   0.000000
     4  H    1.115883   2.168997   1.810799   0.000000
     5  H    1.117162   2.169655   1.812165   1.809000   0.000000
     6  C    2.496495   1.507475   3.466245   2.763683   2.763693
     7  H    2.158757   1.121688   2.493006   2.516198   3.098169
     8  H    2.159175   1.122492   2.493368   3.097822   2.516626
     9  H    3.467418   2.166588   4.314845   3.786112   3.786127
    10  H    2.764542   2.169126   3.785596   3.135796   2.560833
    11  H    2.764542   2.169126   3.785596   2.561394   3.135915
                    6          7          8          9         10
     6  C    0.000000
     7  H    2.158271   0.000000
     8  H    2.158689   1.805000   0.000000
     9  H    1.117326   2.492876   2.493238   0.000000
    10  H    1.116435   3.097432   2.515719   1.811728   0.000000
    11  H    1.116435   2.515720   3.098016   1.811728   1.810000
                   11
    11  H    0.000000
 Stoichiometry    C3H8
 Framework group  C1[X(C3H8)]
 Deg. of freedom    27
 Full point group                 C1      NOp   1
 Largest Abelian subgroup         C1      NOp   1
 Largest concise Abelian subgroup C1      NOp   1
                         Standard orientation:                         
 ---------------------------------------------------------------------
 Center     Atomic      Atomic             Coordinates (Angstroms)
 Number     Number       Type             X           Y           Z
 ---------------------------------------------------------------------
      1          6           0       -1.248520   -0.260601   -0.000077
      2          6           0        0.000211    0.584820   -0.000077
      3          1           0       -2.157052    0.387478   -0.000077
      4          1           0       -1.280745   -0.914007   -0.904077
      5          1           0       -1.280184   -0.914835    0.904923
      6          6           0        1.247976   -0.261090   -0.000077
      7          1           0        0.000445    1.251588   -0.902077
      8          1           0        0.000445    1.251588    0.902923
      9          1           0        2.157794    0.387485   -0.000077
     10          1           0        1.280649   -0.914033    0.904923
     11          1           0        1.280649   -0.914033   -0.905077
 ---------------------------------------------------------------------
 Rotational constants (GHZ):          28.8703697           8.6642802           7.6629713
 Standard basis: 6-31G(d) (6D, 7F)
 There are    61 symmetry adapted cartesian basis functions of A   symmetry.
 There are    61 symmetry adapted basis functions of A   symmetry.
    61 basis functions,   116 primitive gaussians,    61 cartesian basis functions
    13 alpha electrons       13 beta electrons
       nuclear repulsion energy        82.5702329977 Hartrees.
 NAtoms=   11 NActive=   11 NUniq=   11 SFac= 1.00D+00 NAtFMM=   60 NAOKFM=F Big=F
 Integral buffers will be    131072 words long.
 Raffenetti 2 integral format.
 Two-electron integral symmetry is turned on.
 One-electron integrals computed using PRISM.
 NBasis=    61 RedAO= T EigKep=  5.89D-03  NBF=    61
 NBsUse=    61 1.00D-06 EigRej= -1.00D+00 NBFU=    61
 ExpMin= 1.61D-01 ExpMax= 3.05D+03 ExpMxC= 4.57D+02 IAcc=3 IRadAn=         5 AccDes= 0.00D+00
 Harris functional with IExCor= 1009 and IRadAn=       5 diagonalized for initial guess.
 HarFok:  IExCor= 1009 AccDes= 0.00D+00 IRadAn=         5 IDoV= 1 UseB2=F ITyADJ=14
 ICtDFT=  3500011 ScaDFX=  1.000000  1.000000  1.000000  1.000000
 FoFCou: FMM=F IPFlag=           0 FMFlag=      100000 FMFlg1=           0
         NFxFlg=           0 DoJE=T BraDBF=F KetDBF=T FulRan=T
         wScrn=  0.000000 ICntrl=       500 IOpCl=  0 I1Cent=   200000004 NGrid=           0
         NMat0=    1 NMatS0=      1 NMatT0=    0 NMatD0=    1 NMtDS0=    0 NMtDT0=    0
 Petite list used in FoFCou.
 Keep J ints in memory in canonical form, NReq=23033988.
 Requested convergence on RMS density matrix=1.00D-08 within 128 cycles.
 Requested convergence on MAX density matrix=1.00D-06.
 Requested convergence on             energy=1.00D-06.
 No special actions if energy rises.
 Integral accuracy reduced to 1.0D-05 until final iterations.
 Initial convergence to 1.0D-05 achieved.  Increase integral accuracy.
 SCF Done:  E(RPBE-PBE) =  -118.953081384     A.U. after   12 cycles
            NFock= 12  Conv=0.32D-08     -V/T= 2.0113

 **********************************************************************

            Population analysis using the SCF Density.

 **********************************************************************

 Orbital symmetries:
       Occupied  (A) (A) (A) (A) (A) (A) (A) (A) (A) (A) (A) (A)
                 (A)
       Virtual   (A) (A) (A) (A) (A) (A) (A) (A) (A) (A) (A) (A)
                 (A) (A) (A) (A) (A) (A) (A) (A) (A) (A) (A) (A)
                 (A) (A) (A) (A) (A) (A) (A) (A) (A) (A) (A) (A)
                 (A) (A) (A) (A) (A) (A) (A) (A) (A) (A) (A) (A)
 The electronic state is 1-A.
 Alpha  occ. eigenvalues --   -9.89155  -9.88504  -9.88495  -0.70455  -0.60278
 Alpha  occ. eigenvalues --   -0.50924  -0.40271  -0.38235  -0.34549  -0.32565
 Alpha  occ. eigenvalues --   -0.28646  -0.28494  -0.27489
 Alpha virt. eigenvalues --    0.06863   0.11091   0.11544   0.12434   0.14291
 Alpha virt. eigenvalues --    0.16185   0.16487   0.16492   0.20098   0.23602
 Alpha virt. eigenvalues --    0.47866   0.49165   0.51710   0.52730   0.55484
 Alpha virt. eigenvalues --    0.63252   0.66238   0.69561   0.74138   0.80904
 Alpha virt. eigenvalues --    0.81072   0.83649   0.85587   0.85630   0.89987
 Alpha virt. eigenvalues --    0.91258   0.91675   0.99107   1.35421   1.39424
 Alpha virt. eigenvalues --    1.40290   1.51635   1.69069   1.83434   1.87344
 Alpha virt. eigenvalues --    1.90567   1.96920   2.03755   2.12836   2.14999
 Alpha virt. eigenvalues --    2.23222   2.29780   2.33699   2.49627   2.61400
 Alpha virt. eigenvalues --    4.06046   4.18685   4.37347
          Condensed to atoms (all electrons):
               1          2          3          4          5          6
     1  C    5.113999   0.385827   0.366792   0.373045   0.372949  -0.061363
     2  C    0.385827   4.956232  -0.030508  -0.038023  -0.038010   0.385886
     3  H    0.366792  -0.030508   0.569973  -0.028822  -0.028722   0.005632
     4  H    0.373045  -0.038023  -0.028822   0.571767  -0.031213  -0.004926
     5  H    0.372949  -0.038010  -0.028722  -0.031213   0.572113  -0.004931
     6  C   -0.061363   0.385886   0.005632  -0.004926  -0.004931   5.113959
     7  H   -0.040760   0.377311  -0.003188  -0.005221   0.005720  -0.040766
     8  H   -0.040741   0.377252  -0.003198   0.005723  -0.005231  -0.040762
     9  H    0.005636  -0.030530  -0.000229  -0.000016  -0.000015   0.366621
    10  H   -0.004939  -0.038028  -0.000014  -0.000539   0.006472   0.373028
    11  H   -0.004940  -0.038041  -0.000015   0.006465  -0.000539   0.373015
               7          8          9         10         11
     1  C   -0.040760  -0.040741   0.005636  -0.004939  -0.004940
     2  C    0.377311   0.377252  -0.030530  -0.038028  -0.038041
     3  H   -0.003188  -0.003198  -0.000229  -0.000014  -0.000015
     4  H   -0.005221   0.005723  -0.000016  -0.000539   0.006465
     5  H    0.005720  -0.005231  -0.000015   0.006472  -0.000539
     6  C   -0.040766  -0.040762   0.366621   0.373028   0.373015
     7  H    0.600887  -0.036153  -0.003211   0.005727  -0.005228
     8  H   -0.036153   0.601169  -0.003210  -0.005236   0.005725
     9  H   -0.003211  -0.003210   0.570653  -0.028815  -0.028816
    10  H    0.005727  -0.005236  -0.028815   0.571792  -0.031114
    11  H   -0.005228   0.005725  -0.028816  -0.031114   0.571839
 Mulliken charges:
               1
     1  C   -0.465503
     2  C   -0.269366
     3  H    0.152299
     4  H    0.151760
     5  H    0.151408
     6  C   -0.465391
     7  H    0.144883
     8  H    0.144662
     9  H    0.151932
    10  H    0.151666
    11  H    0.151649
 Sum of Mulliken charges =  -0.00000
 Mulliken charges with hydrogens summed into heavy atoms:
               1
     1  C   -0.010035
     2  C    0.020179
     6  C   -0.010144
 Electronic spatial extent (au):  <R**2>=            223.6676
 Charge=             -0.0000 electrons
 Dipole moment (field-independent basis, Debye):
    X=             -0.0004    Y=              0.0648    Z=             -0.0013  Tot=              0.0648
 Quadrupole moment (field-independent basis, Debye-Ang):
   XX=            -22.1388   YY=            -21.6496   ZZ=            -21.1473
   XY=             -0.0012   XZ=              0.0020   YZ=             -0.0007
 Traceless Quadrupole moment (field-independent basis, Debye-Ang):
   XX=             -0.4936   YY=             -0.0043   ZZ=              0.4979
   XY=             -0.0012   XZ=              0.0020   YZ=             -0.0007
 Octapole moment (field-independent basis, Debye-Ang**2):
  XXX=             -0.0108  YYY=              0.1836  ZZZ=             -0.0039  XYY=             -0.0039
  XXY=              1.5888  XXZ=             -0.0050  XZZ=              0.0031  YZZ=             -0.5432
  YYZ=             -0.0019  XYZ=             -0.0005
 Hexadecapole moment (field-independent basis, Debye-Ang**3):
 XXXX=           -195.8530 YYYY=            -70.4151 ZZZZ=            -43.5778 XXXY=             -0.0112
 XXXZ=              0.0135 YYYX=             -0.0003 YYYZ=             -0.0013 ZZZX=              0.0066
 ZZZY=              0.0004 XXYY=            -43.8749 XXZZ=            -40.6017 YYZZ=            -16.8632
 XXYZ=              0.0012 YYXZ=              0.0020 ZZXY=             -0.0036
 N-N= 8.257023299770D+01 E-N=-4.395096694278D+02  KE= 1.176270639773D+02
 There are a total of      242876 grid points.
 ElSum from          density=       26.0000004675
 ElSum from atomic densities=       25.9999990632
 Hirshfeld populations at iteration   1 (CA, CB, DipXYZ):
               1          2          3          4          5
     1  C    3.047518   3.047518   0.007058   0.006238  -0.000141
     2  C    3.028980   3.028980  -0.000109  -0.006436  -0.000131
     3  H    0.484237   0.484237  -0.110713   0.086500  -0.000087
     4  H    0.484509   0.484509  -0.003857  -0.078187  -0.113937
     5  H    0.484497   0.484497  -0.003715  -0.078157   0.113768
     6  C    3.047494   3.047494  -0.007307   0.005982  -0.000037
     7  H    0.484748   0.484748   0.000024   0.076825  -0.111566
     8  H    0.484757   0.484757   0.000033   0.076710   0.111494
     9  H    0.484272   0.484272   0.110563   0.086314  -0.000003
    10  H    0.484494   0.484494   0.003897  -0.078022   0.114032
    11  H    0.484493   0.484493   0.003864  -0.078017  -0.114033
       Tot  13.000000  13.000000  -0.000261   0.019752  -0.000642

 Dip from Atomic Chgs              0.000107   0.005729   0.000128
         Total Dipole             -0.000154   0.025481  -0.000514

 Hirshfeld charges, spin densities, dipoles, and CM5 charges using IRadAn=      5:
              Q-H        S-H        Dx         Dy         Dz        Q-CM5   
     1  C   -0.095036   0.000000   0.007058   0.006238  -0.000141  -0.237759
     2  C   -0.057961   0.000000  -0.000109  -0.006436  -0.000131  -0.166119
     3  H    0.031526   0.000000  -0.110713   0.086500  -0.000087   0.079794
     4  H    0.030981   0.000000  -0.003857  -0.078187  -0.113937   0.079865
     5  H    0.031006   0.000000  -0.003715  -0.078157   0.113768   0.079743
     6  C   -0.094987   0.000000  -0.007307   0.005982  -0.000037  -0.237594
     7  H    0.030503   0.000000   0.000024   0.076825  -0.111566   0.081472
     8  H    0.030486   0.000000   0.000033   0.076710   0.111494   0.081360
     9  H    0.031455   0.000000   0.110563   0.086314  -0.000003   0.079572
    10  H    0.031012   0.000000   0.003897  -0.078022   0.114032   0.079832
    11  H    0.031013   0.000000   0.003864  -0.078017  -0.114033   0.079833
       Tot  -0.000000   0.000000  -0.000261   0.019752  -0.000642  -0.000000
 Hirshfeld charges with hydrogens summed into heavy atoms:
              Q-H       Q-CM5   
     1  C   -0.001522   0.001643
     2  C    0.003028  -0.003287
     6  C   -0.001507   0.001643
 
 EQQ=  0.00000000000     EQD=  0.00000000000     EDD=-0.116693738021E-02
 EQQ+QD+DD=-0.116693738021E-02
 
 ******************************Gaussian NBO Version 3.1******************************
             N A T U R A L   A T O M I C   O R B I T A L   A N D
          N A T U R A L   B O N D   O R B I T A L   A N A L Y S I S
 ******************************Gaussian NBO Version 3.1******************************

       /RESON  / : Allow strongly delocalized NBO set
       /BNDIDX / : Print bond indices based on the NAO density matrix

 Analyzing the SCF density

 Job title: propane_hessian                                                 

 Storage needed:     11598 in NPA,     15203 in NBO (1342176565 available)


 NATURAL POPULATIONS:  Natural atomic orbital occupancies 
                                                          
   NAO  Atom  No  lang   Type(AO)    Occupancy      Energy
 ----------------------------------------------------------
     1    C    1  S      Cor( 1S)     1.99942      -9.75778
     2    C    1  S      Val( 2S)     1.11286      -0.24253
     3    C    1  S      Ryd( 3S)     0.00044       1.20760
     4    C    1  S      Ryd( 4S)     0.00002       4.14904
     5    C    1  px     Val( 2p)     1.14550      -0.06480
     6    C    1  px     Ryd( 3p)     0.00170       0.59390
     7    C    1  py     Val( 2p)     1.19889      -0.06644
     8    C    1  py     Ryd( 3p)     0.00140       0.59987
     9    C    1  pz     Val( 2p)     1.24673      -0.06946
    10    C    1  pz     Ryd( 3p)     0.00100       0.61238
    11    C    1  dxy    Ryd( 3d)     0.00064       2.16283
    12    C    1  dxz    Ryd( 3d)     0.00014       1.75172
    13    C    1  dyz    Ryd( 3d)     0.00095       2.10012
    14    C    1  dx2y2  Ryd( 3d)     0.00042       1.84889
    15    C    1  dz2    Ryd( 3d)     0.00049       2.02691
 
    16    C    2  S      Cor( 1S)     1.99932      -9.75768
    17    C    2  S      Val( 2S)     1.03952      -0.22333
    18    C    2  S      Ryd( 3S)     0.00088       1.28952
    19    C    2  S      Ryd( 4S)     0.00003       4.21425
    20    C    2  px     Val( 2p)     1.03868      -0.05850
    21    C    2  px     Ryd( 3p)     0.00168       0.56621
    22    C    2  py     Val( 2p)     1.15334      -0.06586
    23    C    2  py     Ryd( 3p)     0.00074       0.57328
    24    C    2  pz     Val( 2p)     1.24527      -0.06719
    25    C    2  pz     Ryd( 3p)     0.00258       0.72885
    26    C    2  dxy    Ryd( 3d)     0.00051       2.23899
    27    C    2  dxz    Ryd( 3d)     0.00032       1.79055
    28    C    2  dyz    Ryd( 3d)     0.00112       2.11046
    29    C    2  dx2y2  Ryd( 3d)     0.00056       1.92459
    30    C    2  dz2    Ryd( 3d)     0.00046       2.05376
 
    31    H    3  S      Val( 1S)     0.75661       0.07631
    32    H    3  S      Ryd( 2S)     0.00085       0.63513
 
    33    H    4  S      Val( 1S)     0.76369       0.07161
    34    H    4  S      Ryd( 2S)     0.00121       0.64605
 
    35    H    5  S      Val( 1S)     0.76376       0.07063
    36    H    5  S      Ryd( 2S)     0.00120       0.64681
 
    37    C    6  S      Cor( 1S)     1.99942      -9.75786
    38    C    6  S      Val( 2S)     1.11289      -0.24269
    39    C    6  S      Ryd( 3S)     0.00044       1.20735
    40    C    6  S      Ryd( 4S)     0.00002       4.14911
    41    C    6  px     Val( 2p)     1.14555      -0.06503
    42    C    6  px     Ryd( 3p)     0.00170       0.59396
    43    C    6  py     Val( 2p)     1.19880      -0.06657
    44    C    6  py     Ryd( 3p)     0.00140       0.59961
    45    C    6  pz     Val( 2p)     1.24682      -0.06939
    46    C    6  pz     Ryd( 3p)     0.00100       0.61264
    47    C    6  dxy    Ryd( 3d)     0.00064       2.16251
    48    C    6  dxz    Ryd( 3d)     0.00014       1.75164
    49    C    6  dyz    Ryd( 3d)     0.00095       2.10007
    50    C    6  dx2y2  Ryd( 3d)     0.00042       1.84884
    51    C    6  dz2    Ryd( 3d)     0.00049       2.02711
 
    52    H    7  S      Val( 1S)     0.75793       0.07456
    53    H    7  S      Ryd( 2S)     0.00161       0.64611
 
    54    H    8  S      Val( 1S)     0.75799       0.07395
    55    H    8  S      Ryd( 2S)     0.00161       0.64665
 
    56    H    9  S      Val( 1S)     0.75667       0.07530
    57    H    9  S      Ryd( 2S)     0.00085       0.63590
 
    58    H   10  S      Val( 1S)     0.76364       0.07123
    59    H   10  S      Ryd( 2S)     0.00121       0.64627
 
    60    H   11  S      Val( 1S)     0.76366       0.07122
    61    H   11  S      Ryd( 2S)     0.00121       0.64626


 Summary of Natural Population Analysis:                  
                                                          
                                       Natural Population 
                Natural  -----------------------------------------------
    Atom  No    Charge         Core      Valence    Rydberg      Total
 -----------------------------------------------------------------------
      C    1   -0.71060      1.99942     4.70398    0.00720     6.71060
      C    2   -0.48502      1.99932     4.47681    0.00888     6.48502
      H    3    0.24254      0.00000     0.75661    0.00085     0.75746
      H    4    0.23510      0.00000     0.76369    0.00121     0.76490
      H    5    0.23504      0.00000     0.76376    0.00120     0.76496
      C    6   -0.71070      1.99942     4.70407    0.00721     6.71070
      H    7    0.24046      0.00000     0.75793    0.00161     0.75954
      H    8    0.24040      0.00000     0.75799    0.00161     0.75960
      H    9    0.24249      0.00000     0.75667    0.00085     0.75751
      H   10    0.23515      0.00000     0.76364    0.00121     0.76485
      H   11    0.23513      0.00000     0.76366    0.00121     0.76487
 =======================================================================
   * Total *   -0.00000      5.99817    19.96881    0.03303    26.00000

                                 Natural Population      
 --------------------------------------------------------
   Core                       5.99817 ( 99.9694% of   6)
   Valence                   19.96881 ( 99.8440% of  20)
   Natural Minimal Basis     25.96697 ( 99.8730% of  26)
   Natural Rydberg Basis      0.03303 (  0.1270% of  26)
 --------------------------------------------------------

    Atom  No          Natural Electron Configuration
 ----------------------------------------------------------------------------
      C    1      [core]2S( 1.11)2p( 3.59)
      C    2      [core]2S( 1.04)2p( 3.44)3p( 0.01)
      H    3            1S( 0.76)
      H    4            1S( 0.76)
      H    5            1S( 0.76)
      C    6      [core]2S( 1.11)2p( 3.59)
      H    7            1S( 0.76)
      H    8            1S( 0.76)
      H    9            1S( 0.76)
      H   10            1S( 0.76)
      H   11            1S( 0.76)


 Wiberg bond index matrix in the NAO basis:                                    

     Atom    1       2       3       4       5       6       7       8       9
     ---- ------  ------  ------  ------  ------  ------  ------  ------  ------
   1.  C  0.0000  1.0341  0.9250  0.9242  0.9242  0.0103  0.0028  0.0028  0.0116
   2.  C  1.0341  0.0000  0.0018  0.0034  0.0034  1.0343  0.9039  0.9038  0.0018
   3.  H  0.9250  0.0018  0.0000  0.0004  0.0004  0.0115  0.0010  0.0010  0.0013
   4.  H  0.9242  0.0034  0.0004  0.0000  0.0003  0.0011  0.0009  0.0155  0.0001
   5.  H  0.9242  0.0034  0.0004  0.0003  0.0000  0.0011  0.0155  0.0009  0.0001
   6.  C  0.0103  1.0343  0.0115  0.0011  0.0011  0.0000  0.0028  0.0028  0.9249
   7.  H  0.0028  0.9039  0.0010  0.0009  0.0155  0.0028  0.0000  0.0004  0.0011
   8.  H  0.0028  0.9038  0.0010  0.0155  0.0009  0.0028  0.0004  0.0000  0.0011
   9.  H  0.0116  0.0018  0.0013  0.0001  0.0001  0.9249  0.0011  0.0011  0.0000
  10.  H  0.0011  0.0034  0.0001  0.0000  0.0009  0.9241  0.0155  0.0009  0.0004
  11.  H  0.0011  0.0034  0.0001  0.0009  0.0000  0.9241  0.0009  0.0155  0.0004

     Atom   10      11
     ---- ------  ------
   1.  C  0.0011  0.0011
   2.  C  0.0034  0.0034
   3.  H  0.0001  0.0001
   4.  H  0.0000  0.0009
   5.  H  0.0009  0.0000
   6.  C  0.9241  0.9241
   7.  H  0.0155  0.0009
   8.  H  0.0009  0.0155
   9.  H  0.0004  0.0004
  10.  H  0.0000  0.0003
  11.  H  0.0003  0.0000


 Wiberg bond index, Totals by atom:                                            

     Atom    1
     ---- ------
   1.  C  3.8369
   2.  C  3.8932
   3.  H  0.9425
   4.  H  0.9466
   5.  H  0.9466
   6.  C  3.8368
   7.  H  0.9446
   8.  H  0.9446
   9.  H  0.9425
  10.  H  0.9465
  11.  H  0.9466


 Atom-atom overlap-weighted NAO bond order:                                    

     Atom    1       2       3       4       5       6       7       8       9
     ---- ------  ------  ------  ------  ------  ------  ------  ------  ------
   1.  C  0.0000  0.8667  0.7429  0.7421  0.7418 -0.0165 -0.0055 -0.0055  0.0058
   2.  C  0.8667  0.0000  0.0005 -0.0043 -0.0043  0.8672  0.7392  0.7390  0.0005
   3.  H  0.7429  0.0005  0.0000 -0.0011 -0.0011  0.0058 -0.0041 -0.0041 -0.0001
   4.  H  0.7421 -0.0043 -0.0011  0.0000 -0.0014 -0.0047 -0.0038  0.0054  0.0000
   5.  H  0.7418 -0.0043 -0.0011 -0.0014  0.0000 -0.0047  0.0054 -0.0039  0.0000
   6.  C -0.0165  0.8672  0.0058 -0.0047 -0.0047  0.0000 -0.0054 -0.0055  0.7424
   7.  H -0.0055  0.7392 -0.0041 -0.0038  0.0054 -0.0054  0.0000 -0.0018 -0.0041
   8.  H -0.0055  0.7390 -0.0041  0.0054 -0.0039 -0.0055 -0.0018  0.0000 -0.0041
   9.  H  0.0058  0.0005 -0.0001  0.0000  0.0000  0.7424 -0.0041 -0.0041  0.0000
  10.  H -0.0047 -0.0043  0.0000 -0.0003  0.0037  0.7420  0.0054 -0.0039 -0.0011
  11.  H -0.0047 -0.0043  0.0000  0.0036 -0.0003  0.7420 -0.0039  0.0054 -0.0011

     Atom   10      11
     ---- ------  ------
   1.  C -0.0047 -0.0047
   2.  C -0.0043 -0.0043
   3.  H  0.0000  0.0000
   4.  H -0.0003  0.0036
   5.  H  0.0037 -0.0003
   6.  C  0.7420  0.7420
   7.  H  0.0054 -0.0039
   8.  H -0.0039  0.0054
   9.  H -0.0011 -0.0011
  10.  H  0.0000 -0.0013
  11.  H -0.0013  0.0000


 Atom-atom overlap-weighted NAO bond order, Totals by atom:                    

     Atom    1
     ---- ------
   1.  C  3.0624
   2.  C  3.1957
   3.  H  0.7388
   4.  H  0.7356
   5.  H  0.7352
   6.  C  3.0626
   7.  H  0.7214
   8.  H  0.7211
   9.  H  0.7382
  10.  H  0.7355
  11.  H  0.7355


 MO bond order:                                                                

     Atom    1       2       3       4       5       6       7       8       9
     ---- ------  ------  ------  ------  ------  ------  ------  ------  ------
   1.  C  0.0000 -0.9326  0.2321 -0.6952  0.5964  0.0312  0.0186  0.0825  0.1514
   2.  C -0.9326  0.0000 -0.0336  0.0007 -0.0078  0.7786  0.3178  1.6364  0.0533
   3.  H  0.2321 -0.0336  0.0000  0.0322  0.0320  0.0426 -0.0196 -0.0197 -0.0170
   4.  H -0.6952  0.0007  0.0322  0.0000  0.0296 -0.0117 -0.0175  0.0850  0.0089
   5.  H  0.5964 -0.0078  0.0320  0.0296  0.0000 -0.0351  0.0851 -0.0176  0.0089
   6.  C  0.0312  0.7786  0.0426 -0.0117 -0.0351  0.0000 -0.0152  0.0210  1.6262
   7.  H  0.0186  0.3178 -0.0196 -0.0175  0.0851 -0.0152  0.0000  0.0325 -0.0197
   8.  H  0.0825  1.6364 -0.0197  0.0850 -0.0176  0.0210  0.0325  0.0000 -0.0197
   9.  H  0.1514  0.0533 -0.0170  0.0089  0.0089  1.6262 -0.0197 -0.0197  0.0000
  10.  H -0.0494  0.0227  0.0089  0.0002  0.0171  0.6876  0.0851 -0.0176  0.0320
  11.  H -0.0277  0.0012  0.0089  0.0171  0.0002 -0.6070 -0.0175  0.0852  0.0320

     Atom   10      11
     ---- ------  ------
   1.  C -0.0494 -0.0277
   2.  C  0.0227  0.0012
   3.  H  0.0089  0.0089
   4.  H  0.0002  0.0171
   5.  H  0.0171  0.0002
   6.  C  0.6876 -0.6070
   7.  H  0.0851 -0.0175
   8.  H -0.0176  0.0852
   9.  H  0.0320  0.0320
  10.  H  0.0000  0.0295
  11.  H  0.0295  0.0000


 MO atomic valencies:                                                          

     Atom    1
     ---- ------
   1.  C -0.5925
   2.  C  1.8369
   3.  H  0.2667
   4.  H -0.5507
   5.  H  0.7088
   6.  C  2.5182
   7.  H  0.4496
   8.  H  1.8680
   9.  H  1.8562
  10.  H  0.8162
  11.  H -0.4781


 NATURAL BOND ORBITAL ANALYSIS:

                       Occupancies       Lewis Structure    Low   High
           Occ.    -------------------  -----------------   occ   occ
  Cycle   Thresh.   Lewis   Non-Lewis     CR  BD  3C  LP    (L)   (NL)   Dev
 =============================================================================
   1(1)    1.90    25.86780   0.13220      3  10   0   0     0      0    0.03
 -----------------------------------------------------------------------------

 Structure accepted: No low occupancy Lewis orbitals

 --------------------------------------------------------
   Core                      5.99817 ( 99.969% of   6)
   Valence Lewis            19.86963 ( 99.348% of  20)
  ==================       ============================
   Total Lewis              25.86780 ( 99.492% of  26)
  -----------------------------------------------------
   Valence non-Lewis         0.10892 (  0.419% of  26)
   Rydberg non-Lewis         0.02327 (  0.090% of  26)
  ==================       ============================
   Total non-Lewis           0.13220 (  0.508% of  26)
 --------------------------------------------------------


       (Occupancy)   Bond orbital/ Coefficients/ Hybrids
 ---------------------------------------------------------------------------------
     1. (1.99003) BD ( 1) C   1 - C   2  
                ( 49.83%)   0.7059* C   1 s( 29.22%)p 2.42( 70.75%)d 0.00(  0.02%)
                                            0.0003  0.5405 -0.0116  0.0026  0.6944
                                            0.0033  0.4744  0.0159  0.0001 -0.0000
                                            0.0125 -0.0000 -0.0000  0.0049 -0.0076
                ( 50.17%)   0.7083* C   2 s( 27.65%)p 2.62( 72.33%)d 0.00(  0.03%)
                                            0.0001  0.5256 -0.0129  0.0008 -0.7070
                                           -0.0183 -0.4724  0.0032  0.0000 -0.0000
                                            0.0133  0.0000  0.0000  0.0038 -0.0080
     2. (1.98898) BD ( 1) C   1 - H   3  
                ( 62.17%)   0.7885* C   1 s( 23.55%)p 3.25( 76.41%)d 0.00(  0.05%)
                                            0.0000 -0.4852 -0.0008  0.0009  0.7178
                                            0.0005 -0.4986  0.0140 -0.0003 -0.0000
                                            0.0179 -0.0000  0.0000 -0.0053  0.0105
                ( 37.83%)   0.6151* H   3 s(100.00%)
                                           -1.0000 -0.0007
     3. (1.98927) BD ( 1) C   1 - H   4  
                ( 61.93%)   0.7869* C   1 s( 23.63%)p 3.23( 76.32%)d 0.00(  0.05%)
                                            0.0000 -0.4861 -0.0043  0.0007  0.0278
                                            0.0152  0.5125  0.0025  0.7067 -0.0055
                                           -0.0003 -0.0002 -0.0176  0.0063 -0.0106
                ( 38.07%)   0.6170* H   4 s(100.00%)
                                           -1.0000 -0.0019
     4. (1.98927) BD ( 1) C   1 - H   5  
                ( 61.92%)   0.7869* C   1 s( 23.59%)p 3.24( 76.36%)d 0.00(  0.05%)
                                            0.0000 -0.4857 -0.0044  0.0007  0.0276
                                            0.0152  0.5126  0.0023 -0.7070  0.0057
                                           -0.0003  0.0002  0.0176  0.0063 -0.0105
                ( 38.08%)   0.6171* H   5 s(100.00%)
                                           -1.0000 -0.0019
     5. (1.99007) BD ( 1) C   2 - C   6  
                ( 50.17%)   0.7083* C   2 s( 27.67%)p 2.61( 72.31%)d 0.00(  0.03%)
                                            0.0002  0.5258 -0.0129  0.0008  0.7065
                                            0.0184 -0.4728  0.0031  0.0000 -0.0000
                                           -0.0133 -0.0000  0.0000  0.0038 -0.0080
                ( 49.83%)   0.7059* C   6 s( 29.26%)p 2.42( 70.72%)d 0.00(  0.02%)
                                            0.0003  0.5408 -0.0116  0.0025 -0.6940
                                           -0.0035  0.4747  0.0159  0.0000  0.0000
                                           -0.0125  0.0000 -0.0000  0.0049 -0.0076
     6. (1.97727) BD ( 1) C   2 - H   7  
                ( 62.22%)   0.7888* C   2 s( 22.39%)p 3.47( 77.57%)d 0.00(  0.05%)
                                           -0.0001  0.4730  0.0112 -0.0007  0.0001
                                           -0.0000  0.5256  0.0031 -0.7064  0.0185
                                            0.0000 -0.0000 -0.0179 -0.0060  0.0112
                ( 37.78%)   0.6147* H   7 s(100.00%)
                                            1.0000  0.0032
     7. (1.97727) BD ( 1) C   2 - H   8  
                ( 62.21%)   0.7888* C   2 s( 22.35%)p 3.47( 77.60%)d 0.00(  0.05%)
                                           -0.0001  0.4726  0.0113 -0.0007  0.0001
                                           -0.0000  0.5254  0.0030  0.7069 -0.0186
                                            0.0000  0.0000  0.0179 -0.0060  0.0112
                ( 37.79%)   0.6147* H   8 s(100.00%)
                                            1.0000  0.0032
     8. (1.98894) BD ( 1) C   6 - H   9  
                ( 62.16%)   0.7884* C   6 s( 23.47%)p 3.26( 76.48%)d 0.00(  0.05%)
                                           -0.0000  0.4845  0.0009 -0.0009  0.7182
                                            0.0003  0.4988 -0.0141 -0.0000  0.0000
                                            0.0178 -0.0000 -0.0000  0.0053 -0.0105
                ( 37.84%)   0.6151* H   9 s(100.00%)
                                            1.0000  0.0007
     9. (1.98927) BD ( 1) C   6 - H  10  
                ( 61.93%)   0.7870* C   6 s( 23.64%)p 3.23( 76.32%)d 0.00(  0.05%)
                                            0.0000 -0.4861 -0.0043  0.0007 -0.0280
                                           -0.0152  0.5123  0.0025 -0.7069  0.0056
                                            0.0003 -0.0002  0.0176  0.0062 -0.0106
                ( 38.07%)   0.6170* H  10 s(100.00%)
                                           -1.0000 -0.0019
    10. (1.98926) BD ( 1) C   6 - H  11  
                ( 61.93%)   0.7870* C   6 s( 23.63%)p 3.23( 76.32%)d 0.00(  0.05%)
                                            0.0000 -0.4861 -0.0043  0.0007 -0.0280
                                           -0.0152  0.5123  0.0025  0.7069 -0.0056
                                            0.0003  0.0002 -0.0176  0.0062 -0.0106
                ( 38.07%)   0.6170* H  11 s(100.00%)
                                           -1.0000 -0.0019
    11. (1.99942) CR ( 1) C   1           s(100.00%)p 0.00(  0.00%)
                                            1.0000 -0.0001  0.0000 -0.0000 -0.0002
                                           -0.0000 -0.0001 -0.0000 -0.0000  0.0000
                                           -0.0000  0.0000  0.0000 -0.0000  0.0000
    12. (1.99933) CR ( 1) C   2           s(100.00%)p 0.00(  0.00%)
                                            1.0000 -0.0001  0.0000 -0.0000 -0.0000
                                           -0.0000  0.0002 -0.0000 -0.0000 -0.0000
                                            0.0000  0.0000 -0.0000 -0.0000  0.0000
    13. (1.99942) CR ( 1) C   6           s(100.00%)p 0.00(  0.00%)
                                            1.0000 -0.0001  0.0000 -0.0000  0.0002
                                            0.0000 -0.0001 -0.0000 -0.0000 -0.0000
                                            0.0000 -0.0000  0.0000 -0.0000  0.0000
    14. (0.00224) RY*( 1) C   1           s(  5.20%)p15.31( 79.58%)d 2.93( 15.22%)
                                            0.0000 -0.0084  0.2272  0.0175 -0.0119
                                           -0.6823  0.0181  0.5743 -0.0001  0.0001
                                            0.1851  0.0000 -0.0001 -0.3326  0.0857
    15. (0.00132) RY*( 2) C   1           s(  0.00%)p 1.00( 72.67%)d 0.38( 27.33%)
                                           -0.0000  0.0001 -0.0000  0.0001  0.0000
                                            0.0000 -0.0001  0.0000  0.0171  0.8523
                                            0.0000  0.3201  0.4134  0.0000  0.0000
    16. (0.00031) RY*( 3) C   1           s(  6.46%)p14.33( 92.61%)d 0.14(  0.93%)
                                           -0.0000 -0.0079  0.2386 -0.0873  0.0204
                                           -0.6020  0.0138 -0.7504  0.0001 -0.0001
                                           -0.0028  0.0002  0.0001  0.0962 -0.0005
    17. (0.00017) RY*( 4) C   1           s( 78.97%)p 0.07(  5.60%)d 0.20( 15.43%)
                                           -0.0000  0.0041  0.8588  0.2283  0.0068
                                            0.1896 -0.0010  0.1414 -0.0001  0.0001
                                           -0.1534 -0.0002  0.0000  0.3603 -0.0304
    18. (0.00001) RY*( 5) C   1           s( 10.12%)p 1.38( 13.99%)d 7.50( 75.88%)
    19. (0.00001) RY*( 6) C   1           s(  2.13%)p 2.70(  5.77%)d43.16( 92.10%)
    20. (0.00000) RY*( 7) C   1           s(  0.00%)p 1.00( 12.37%)d 7.08( 87.63%)
    21. (0.00000) RY*( 8) C   1           s(  0.00%)p 1.00( 15.02%)d 5.66( 84.98%)
    22. (0.00000) RY*( 9) C   1           s( 96.82%)p 0.03(  2.51%)d 0.01(  0.67%)
    23. (0.00000) RY*(10) C   1           s(  0.29%)p 0.12(  0.04%)d99.99( 99.68%)
    24. (0.00236) RY*( 1) C   2           s(  0.00%)p 1.00( 82.11%)d 0.22( 17.89%)
                                           -0.0000  0.0001 -0.0001  0.0001  0.0000
                                           -0.0002  0.0000 -0.0002  0.0345  0.9055
                                           -0.0001  0.0002 -0.4229 -0.0000 -0.0001
    25. (0.00121) RY*( 2) C   2           s( 12.45%)p 4.09( 50.89%)d 2.95( 36.67%)
                                           -0.0000  0.0041  0.3459  0.0693 -0.0002
                                            0.0073 -0.0169 -0.7131 -0.0001 -0.0000
                                            0.0011  0.0001  0.0002 -0.5847  0.1575
    26. (0.00105) RY*( 3) C   2           s(  0.00%)p 1.00( 96.02%)d 0.04(  3.97%)
                                           -0.0000  0.0001  0.0037  0.0005  0.0217
                                           -0.9797 -0.0002 -0.0040 -0.0000 -0.0001
                                           -0.1993  0.0003  0.0003 -0.0051  0.0015
    27. (0.00032) RY*( 4) C   2           s(  0.00%)p 0.00(  0.00%)d 1.00(100.00%)
                                            0.0000 -0.0000  0.0004  0.0000  0.0000
                                            0.0002 -0.0000  0.0003 -0.0000  0.0002
                                            0.0003  1.0000  0.0010 -0.0000 -0.0001
    28. (0.00020) RY*( 5) C   2           s( 41.57%)p 1.00( 41.54%)d 0.41( 16.89%)
                                           -0.0000 -0.0031  0.6352 -0.1102 -0.0000
                                            0.0021 -0.0224  0.6441  0.0000  0.0001
                                           -0.0011 -0.0005 -0.0002 -0.3800  0.1567
    29. (0.00013) RY*( 6) C   2           s(  0.00%)p 1.00(  4.01%)d23.96( 95.99%)
                                           -0.0000  0.0000  0.0011 -0.0005  0.0236
                                           -0.1988 -0.0001  0.0007 -0.0000  0.0001
                                            0.9798 -0.0003  0.0002 -0.0007  0.0004
    30. (0.00007) RY*( 7) C   2           s( 59.64%)p 0.05(  2.78%)d 0.63( 37.57%)
    31. (0.00000) RY*( 8) C   2           s(  0.00%)p 1.00( 17.95%)d 4.57( 82.05%)
    32. (0.00000) RY*( 9) C   2           s( 85.41%)p 0.06(  4.82%)d 0.11(  9.77%)
    33. (0.00000) RY*(10) C   2           s(  0.88%)p 0.08(  0.07%)d99.99( 99.05%)
    34. (0.00085) RY*( 1) H   3           s(100.00%)
                                           -0.0007  1.0000
    35. (0.00121) RY*( 1) H   4           s(100.00%)
                                           -0.0019  1.0000
    36. (0.00121) RY*( 1) H   5           s(100.00%)
                                           -0.0019  1.0000
    37. (0.00224) RY*( 1) C   6           s(  5.18%)p15.36( 79.59%)d 2.94( 15.23%)
                                            0.0000 -0.0082  0.2268  0.0178  0.0120
                                            0.6824  0.0181  0.5743 -0.0000 -0.0001
                                           -0.1850  0.0001 -0.0001 -0.3327  0.0859
    38. (0.00132) RY*( 2) C   6           s(  0.00%)p 1.00( 72.64%)d 0.38( 27.36%)
                                           -0.0000  0.0000  0.0001 -0.0000 -0.0000
                                           -0.0001 -0.0000 -0.0000 -0.0171 -0.8521
                                            0.0000  0.3201 -0.4137  0.0001 -0.0001
    39. (0.00031) RY*( 3) C   6           s(  6.23%)p14.90( 92.88%)d 0.14(  0.88%)
                                           -0.0000 -0.0079  0.2334 -0.0884 -0.0205
                                            0.6033  0.0138 -0.7512  0.0000 -0.0000
                                            0.0022 -0.0001  0.0000  0.0940 -0.0003
    40. (0.00017) RY*( 4) C   6           s( 79.17%)p 0.07(  5.33%)d 0.20( 15.50%)
                                           -0.0000  0.0040  0.8601  0.2280 -0.0070
                                           -0.1855 -0.0010  0.1373 -0.0000  0.0003
                                            0.1526  0.0001 -0.0001  0.3616 -0.0307
    41. (0.00001) RY*( 5) C   6           s( 10.18%)p 1.38( 14.01%)d 7.45( 75.81%)
    42. (0.00001) RY*( 6) C   6           s(  2.12%)p 2.72(  5.75%)d43.49( 92.13%)
    43. (0.00000) RY*( 7) C   6           s(  0.00%)p 1.00( 12.38%)d 7.08( 87.62%)
    44. (0.00000) RY*( 8) C   6           s(  0.00%)p 1.00( 15.04%)d 5.65( 84.96%)
    45. (0.00000) RY*( 9) C   6           s( 96.83%)p 0.03(  2.50%)d 0.01(  0.66%)
    46. (0.00000) RY*(10) C   6           s(  0.28%)p 0.13(  0.04%)d99.99( 99.68%)
    47. (0.00162) RY*( 1) H   7           s(100.00%)
                                           -0.0032  1.0000
    48. (0.00162) RY*( 1) H   8           s(100.00%)
                                           -0.0032  1.0000
    49. (0.00085) RY*( 1) H   9           s(100.00%)
                                           -0.0007  1.0000
    50. (0.00121) RY*( 1) H  10           s(100.00%)
                                           -0.0019  1.0000
    51. (0.00121) RY*( 1) H  11           s(100.00%)
                                           -0.0019  1.0000
    52. (0.00999) BD*( 1) C   1 - C   2  
                ( 50.17%)   0.7083* C   1 s( 29.22%)p 2.42( 70.75%)d 0.00(  0.02%)
                                            0.0003  0.5405 -0.0116  0.0026  0.6944
                                            0.0033  0.4744  0.0159  0.0001 -0.0000
                                            0.0125 -0.0000 -0.0000  0.0049 -0.0076
                ( 49.83%)  -0.7059* C   2 s( 27.65%)p 2.62( 72.33%)d 0.00(  0.03%)
                                            0.0001  0.5256 -0.0129  0.0008 -0.7070
                                           -0.0183 -0.4724  0.0032  0.0000 -0.0000
                                            0.0133  0.0000  0.0000  0.0038 -0.0080
    53. (0.00662) BD*( 1) C   1 - H   3  
                ( 37.83%)   0.6151* C   1 s( 23.55%)p 3.25( 76.41%)d 0.00(  0.05%)
                                           -0.0000  0.4852  0.0008 -0.0009 -0.7178
                                           -0.0005  0.4986 -0.0140  0.0003  0.0000
                                           -0.0179  0.0000 -0.0000  0.0053 -0.0105
                ( 62.17%)  -0.7885* H   3 s(100.00%)
                                            1.0000  0.0007
    54. (0.01020) BD*( 1) C   1 - H   4  
                ( 38.07%)   0.6170* C   1 s( 23.63%)p 3.23( 76.32%)d 0.00(  0.05%)
                                           -0.0000  0.4861  0.0043 -0.0007 -0.0278
                                           -0.0152 -0.5125 -0.0025 -0.7067  0.0055
                                            0.0003  0.0002  0.0176 -0.0063  0.0106
                ( 61.93%)  -0.7869* H   4 s(100.00%)
                                            1.0000  0.0019
    55. (0.01022) BD*( 1) C   1 - H   5  
                ( 38.08%)   0.6171* C   1 s( 23.59%)p 3.24( 76.36%)d 0.00(  0.05%)
                                           -0.0000  0.4857  0.0044 -0.0007 -0.0276
                                           -0.0152 -0.5126 -0.0023  0.7070 -0.0057
                                            0.0003 -0.0002 -0.0176 -0.0063  0.0105
                ( 61.92%)  -0.7869* H   5 s(100.00%)
                                            1.0000  0.0019
    56. (0.00995) BD*( 1) C   2 - C   6  
                ( 49.83%)   0.7059* C   2 s( 27.67%)p 2.61( 72.31%)d 0.00(  0.03%)
                                           -0.0002 -0.5258  0.0129 -0.0008 -0.7065
                                           -0.0184  0.4728 -0.0031 -0.0000  0.0000
                                            0.0133  0.0000 -0.0000 -0.0038  0.0080
                ( 50.17%)  -0.7083* C   6 s( 29.26%)p 2.42( 70.72%)d 0.00(  0.02%)
                                           -0.0003 -0.5408  0.0116 -0.0025  0.6940
                                            0.0035 -0.4747 -0.0159 -0.0000 -0.0000
                                            0.0125 -0.0000  0.0000 -0.0049  0.0076
    57. (0.01740) BD*( 1) C   2 - H   7  
                ( 37.78%)   0.6147* C   2 s( 22.39%)p 3.47( 77.57%)d 0.00(  0.05%)
                                            0.0001 -0.4730 -0.0112  0.0007 -0.0001
                                            0.0000 -0.5256 -0.0031  0.7064 -0.0185
                                           -0.0000  0.0000  0.0179  0.0060 -0.0112
                ( 62.22%)  -0.7888* H   7 s(100.00%)
                                           -1.0000 -0.0032
    58. (0.01742) BD*( 1) C   2 - H   8  
                ( 37.79%)   0.6147* C   2 s( 22.35%)p 3.47( 77.60%)d 0.00(  0.05%)
                                            0.0001 -0.4726 -0.0113  0.0007 -0.0001
                                            0.0000 -0.5254 -0.0030 -0.7069  0.0186
                                           -0.0000 -0.0000 -0.0179  0.0060 -0.0112
                ( 62.21%)  -0.7888* H   8 s(100.00%)
                                           -1.0000 -0.0032
    59. (0.00667) BD*( 1) C   6 - H   9  
                ( 37.84%)   0.6151* C   6 s( 23.47%)p 3.26( 76.48%)d 0.00(  0.05%)
                                            0.0000 -0.4845 -0.0009  0.0009 -0.7182
                                           -0.0003 -0.4988  0.0141  0.0000 -0.0000
                                           -0.0178  0.0000  0.0000 -0.0053  0.0105
                ( 62.16%)  -0.7884* H   9 s(100.00%)
                                           -1.0000 -0.0007
    60. (0.01022) BD*( 1) C   6 - H  10  
                ( 38.07%)   0.6170* C   6 s( 23.64%)p 3.23( 76.32%)d 0.00(  0.05%)
                                           -0.0000  0.4861  0.0043 -0.0007  0.0280
                                            0.0152 -0.5123 -0.0025  0.7069 -0.0056
                                           -0.0003  0.0002 -0.0176 -0.0062  0.0106
                ( 61.93%)  -0.7870* H  10 s(100.00%)
                                            1.0000  0.0019
    61. (0.01023) BD*( 1) C   6 - H  11  
                ( 38.07%)   0.6170* C   6 s( 23.63%)p 3.23( 76.32%)d 0.00(  0.05%)
                                           -0.0000  0.4861  0.0043 -0.0007  0.0280
                                            0.0152 -0.5123 -0.0025 -0.7069  0.0056
                                           -0.0003 -0.0002  0.0176 -0.0062  0.0106
                ( 61.93%)  -0.7870* H  11 s(100.00%)
                                            1.0000  0.0019


 NHO Directionality and "Bond Bending" (deviations from line of nuclear centers)

         [Thresholds for printing:  angular deviation  >  1.0 degree]
                                    hybrid p-character > 25.0%
                                    orbital occupancy  >  0.10e

                                Line of Centers        Hybrid 1              Hybrid 2
                                ---------------  -------------------   ------------------
                NBO               Theta   Phi    Theta   Phi    Dev    Theta   Phi    Dev
 ========================================================================================
     1. BD (   1) C   1 - C   2    90.0   34.1     --     --    --      90.0  212.9   1.2
     2. BD (   1) C   1 - H   3    90.0  144.5    90.0  146.0   1.5      --     --    --
     3. BD (   1) C   1 - H   4   144.1  267.2   143.6  265.2   1.3      --     --    --
     4. BD (   1) C   1 - H   5    35.9  267.2    36.4  265.2   1.3      --     --    --
     5. BD (   1) C   2 - C   6    90.0  325.9    90.0  327.1   1.2      --     --    --
     6. BD (   1) C   2 - H   7   143.5   90.0   142.5   90.0   1.1      --     --    --
     7. BD (   1) C   2 - H   8    36.4   90.0    37.5   90.0   1.1      --     --    --
     8. BD (   1) C   6 - H   9    90.0   35.5    90.0   34.0   1.5      --     --    --
     9. BD (   1) C   6 - H  10    35.8  272.9    36.4  274.8   1.3      --     --    --
    10. BD (   1) C   6 - H  11   144.2  272.9   143.6  274.8   1.3      --     --    --


 Second Order Perturbation Theory Analysis of Fock Matrix in NBO Basis

     Threshold for printing:   0.50 kcal/mol
                                                                              E(2)  E(j)-E(i) F(i,j)
         Donor NBO (i)                     Acceptor NBO (j)                 kcal/mol   a.u.    a.u. 
 ===================================================================================================

 within unit  1
   1. BD (   1) C   1 - C   2        / 37. RY*(   1) C   6                    0.96    1.48    0.034
   1. BD (   1) C   1 - C   2        / 53. BD*(   1) C   1 - H   3            0.52    0.92    0.020
   1. BD (   1) C   1 - C   2        / 56. BD*(   1) C   2 - C   6            0.75    0.91    0.023
   1. BD (   1) C   1 - C   2        / 59. BD*(   1) C   6 - H   9            1.77    0.92    0.036
   2. BD (   1) C   1 - H   3        / 25. RY*(   2) C   2                    0.53    1.63    0.026
   2. BD (   1) C   1 - H   3        / 56. BD*(   1) C   2 - C   6            3.18    0.79    0.045
   3. BD (   1) C   1 - H   4        / 58. BD*(   1) C   2 - H   8            2.80    0.80    0.042
   4. BD (   1) C   1 - H   5        / 57. BD*(   1) C   2 - H   7            2.80    0.80    0.042
   5. BD (   1) C   2 - C   6        / 14. RY*(   1) C   1                    0.95    1.48    0.034
   5. BD (   1) C   2 - C   6        / 52. BD*(   1) C   1 - C   2            0.75    0.91    0.023
   5. BD (   1) C   2 - C   6        / 53. BD*(   1) C   1 - H   3            1.76    0.93    0.036
   5. BD (   1) C   2 - C   6        / 59. BD*(   1) C   6 - H   9            0.52    0.92    0.020
   6. BD (   1) C   2 - H   7        / 15. RY*(   2) C   1                    0.51    1.44    0.024
   6. BD (   1) C   2 - H   7        / 38. RY*(   2) C   6                    0.51    1.44    0.024
   6. BD (   1) C   2 - H   7        / 55. BD*(   1) C   1 - H   5            2.97    0.79    0.044
   6. BD (   1) C   2 - H   7        / 60. BD*(   1) C   6 - H  10            2.98    0.80    0.044
   7. BD (   1) C   2 - H   8        / 15. RY*(   2) C   1                    0.51    1.44    0.024
   7. BD (   1) C   2 - H   8        / 38. RY*(   2) C   6                    0.51    1.44    0.024
   7. BD (   1) C   2 - H   8        / 54. BD*(   1) C   1 - H   4            2.97    0.80    0.044
   7. BD (   1) C   2 - H   8        / 61. BD*(   1) C   6 - H  11            2.98    0.80    0.044
   8. BD (   1) C   6 - H   9        / 25. RY*(   2) C   2                    0.53    1.63    0.026
   8. BD (   1) C   6 - H   9        / 52. BD*(   1) C   1 - C   2            3.19    0.79    0.045
   9. BD (   1) C   6 - H  10        / 57. BD*(   1) C   2 - H   7            2.80    0.80    0.042
  10. BD (   1) C   6 - H  11        / 58. BD*(   1) C   2 - H   8            2.80    0.80    0.042
  11. CR (   1) C   1                / 26. RY*(   3) C   2                    1.07   10.40    0.094
  11. CR (   1) C   1                / 28. RY*(   5) C   2                    0.57   10.87    0.070
  12. CR (   1) C   2                / 16. RY*(   3) C   1                    1.32   10.35    0.104
  12. CR (   1) C   2                / 39. RY*(   3) C   6                    1.32   10.35    0.105
  13. CR (   1) C   6                / 26. RY*(   3) C   2                    1.07   10.40    0.094
  13. CR (   1) C   6                / 28. RY*(   5) C   2                    0.57   10.87    0.070


 Natural Bond Orbitals (Summary):

                                                            Principal Delocalizations
           NBO                        Occupancy    Energy   (geminal,vicinal,remote)
 ====================================================================================
 Molecular unit  1  (C3H8)
     1. BD (   1) C   1 - C   2          1.99003    -0.53856  59(v),37(v),56(g),53(g)
     2. BD (   1) C   1 - H   3          1.98898    -0.42315  56(v),25(v)
     3. BD (   1) C   1 - H   4          1.98927    -0.42457  58(v)
     4. BD (   1) C   1 - H   5          1.98927    -0.42409  57(v)
     5. BD (   1) C   2 - C   6          1.99007    -0.53896  53(v),14(v),52(g),59(g)
     6. BD (   1) C   2 - H   7          1.97727    -0.41487  60(v),55(v),15(v),38(v)
     7. BD (   1) C   2 - H   8          1.97727    -0.41454  61(v),54(v),38(v),15(v)
     8. BD (   1) C   6 - H   9          1.98894    -0.42255  52(v),25(v)
     9. BD (   1) C   6 - H  10          1.98927    -0.42444  57(v)
    10. BD (   1) C   6 - H  11          1.98926    -0.42444  58(v)
    11. CR (   1) C   1                  1.99942    -9.75759  26(v),28(v)
    12. CR (   1) C   2                  1.99933    -9.75760  39(v),16(v)
    13. CR (   1) C   6                  1.99942    -9.75767  26(v),28(v)
    14. RY*(   1) C   1                  0.00224     0.94001   
    15. RY*(   2) C   1                  0.00132     1.02499   
    16. RY*(   3) C   1                  0.00031     0.59480   
    17. RY*(   4) C   1                  0.00017     1.46680   
    18. RY*(   5) C   1                  0.00001     1.77813   
    19. RY*(   6) C   1                  0.00001     2.03086   
    20. RY*(   7) C   1                  0.00000     1.65184   
    21. RY*(   8) C   1                  0.00000     1.78383   
    22. RY*(   9) C   1                  0.00000     3.82609   
    23. RY*(  10) C   1                  0.00000     1.94131   
    24. RY*(   1) C   2                  0.00236     1.07195   
    25. RY*(   2) C   2                  0.00121     1.21147   
    26. RY*(   3) C   2                  0.00105     0.64182   
    27. RY*(   4) C   2                  0.00032     1.79055   
    28. RY*(   5) C   2                  0.00020     1.11259   
    29. RY*(   6) C   2                  0.00013     2.15531   
    30. RY*(   7) C   2                  0.00007     2.13192   
    31. RY*(   8) C   2                  0.00000     1.76436   
    32. RY*(   9) C   2                  0.00000     3.62432   
    33. RY*(  10) C   2                  0.00000     1.96880   
    34. RY*(   1) H   3                  0.00085     0.63476   
    35. RY*(   1) H   4                  0.00121     0.64501   
    36. RY*(   1) H   5                  0.00121     0.64577   
    37. RY*(   1) C   6                  0.00224     0.93949   
    38. RY*(   2) C   6                  0.00132     1.02587   
    39. RY*(   3) C   6                  0.00031     0.59302   
    40. RY*(   4) C   6                  0.00017     1.46790   
    41. RY*(   5) C   6                  0.00001     1.77745   
    42. RY*(   6) C   6                  0.00001     2.03098   
    43. RY*(   7) C   6                  0.00000     1.65171   
    44. RY*(   8) C   6                  0.00000     1.78322   
    45. RY*(   9) C   6                  0.00000     3.82691   
    46. RY*(  10) C   6                  0.00000     1.94169   
    47. RY*(   1) H   7                  0.00162     0.64439   
    48. RY*(   1) H   8                  0.00162     0.64493   
    49. RY*(   1) H   9                  0.00085     0.63552   
    50. RY*(   1) H  10                  0.00121     0.64523   
    51. RY*(   1) H  11                  0.00121     0.64521   
    52. BD*(   1) C   1 - C   2          0.00999     0.36923   
    53. BD*(   1) C   1 - H   3          0.00662     0.38607   
    54. BD*(   1) C   1 - H   4          0.01020     0.38129   
    55. BD*(   1) C   1 - H   5          0.01022     0.37939   
    56. BD*(   1) C   2 - C   6          0.00995     0.36977   
    57. BD*(   1) C   2 - H   7          0.01740     0.37898   
    58. BD*(   1) C   2 - H   8          0.01742     0.37779   
    59. BD*(   1) C   6 - H   9          0.00667     0.38409   
    60. BD*(   1) C   6 - H  10          0.01022     0.38052   
    61. BD*(   1) C   6 - H  11          0.01023     0.38052   
       -------------------------------
              Total Lewis   25.86780  ( 99.4915%)
        Valence non-Lewis    0.10892  (  0.4189%)
        Rydberg non-Lewis    0.02327  (  0.0895%)
       -------------------------------
            Total unit  1   26.00000  (100.0000%)
           Charge unit  1    0.00000
 Calling FoFJK, ICntrl=      2527 FMM=F ISym2X=0 I1Cent= 0 IOpClX= 0 NMat=1 NMatS=1 NMatT=0.
 ***** Axes restored to original set *****
 -------------------------------------------------------------------
 Center     Atomic                   Forces (Hartrees/Bohr)
 Number     Number              X              Y              Z
 -------------------------------------------------------------------
      1        6          -0.015870973    0.004837122    0.000543398
      2        6           0.010055698    0.015208328    0.000362533
      3        1          -0.001038379   -0.007990735    0.000043089
      4        1           0.000328128    0.003366415    0.006056401
      5        1           0.000545594    0.003755595   -0.006640221
      6        6           0.011447893   -0.013066311   -0.000002337
      7        1          -0.001816792   -0.002654752    0.008150809
      8        1          -0.001952996   -0.002855995   -0.008507952
      9        1          -0.007746902   -0.003909771   -0.000000793
     10        1           0.003023839    0.001656552   -0.006400424
     11        1           0.003024888    0.001653554    0.006395497
 -------------------------------------------------------------------
 Cartesian Forces:  Max     0.015870973 RMS     0.006567904

 GradGradGradGradGradGradGradGradGradGradGradGradGradGradGradGradGradGrad
 Berny optimization.
 FormGI is forming the generalized inverse of G from B-inverse, IUseBI=4.
 Internal  Forces:  Max     0.016307047 RMS     0.004947613
 Search for a local minimum.
 Step number   1 out of a maximum of   56
 All quantities printed in internal units (Hartrees-Bohrs-Radians)
 Mixed Optimization -- RFO/linear search
 Second derivative matrix not updated -- first step.
 ITU=  0
     Eigenvalues ---    0.00660   0.00667   0.03866   0.05082   0.05794
     Eigenvalues ---    0.05798   0.05809   0.05818   0.08324   0.12160
     Eigenvalues ---    0.16000   0.16000   0.16000   0.16000   0.16000
     Eigenvalues ---    0.16000   0.21909   0.31312   0.31393   0.31552
     Eigenvalues ---    0.31606   0.31836   0.31853   0.31928   0.31928
     Eigenvalues ---    0.31974   0.31985
 RFO step:  Lambda=-4.06274450D-03 EMin= 6.60122863D-03
 Linear search not attempted -- first point.
 Iteration  1 RMS(Cart)=  0.03644380 RMS(Int)=  0.00024286
 Iteration  2 RMS(Cart)=  0.00028351 RMS(Int)=  0.00010146
 Iteration  3 RMS(Cart)=  0.00000006 RMS(Int)=  0.00010146
 Variable       Old X    -DE/DX   Delta X   Delta X   Delta X     New X
                                 (Linear)    (Quad)   (Total)
    R1        2.84971   0.01604   0.00000   0.05018   0.05018   2.89988
    R2        2.10892  -0.00713   0.00000  -0.02201  -0.02201   2.08691
    R3        2.10871  -0.00660   0.00000  -0.02038  -0.02038   2.08834
    R4        2.11113  -0.00733   0.00000  -0.02273  -0.02273   2.08840
    R5        2.84871   0.01631   0.00000   0.05094   0.05094   2.89966
    R6        2.11968  -0.00847   0.00000  -0.02663  -0.02663   2.09306
    R7        2.12120  -0.00890   0.00000  -0.02806  -0.02806   2.09315
    R8        2.11144  -0.00784   0.00000  -0.02431  -0.02431   2.08713
    R9        2.10976  -0.00694   0.00000  -0.02145  -0.02145   2.08831
   R10        2.10976  -0.00693   0.00000  -0.02143  -0.02143   2.08832
    A1        1.92684   0.00469   0.00000   0.03047   0.03025   1.95709
    A2        1.93070   0.00172   0.00000   0.00958   0.00947   1.94017
    A3        1.93027   0.00178   0.00000   0.00981   0.00970   1.93998
    A4        1.89287  -0.00308   0.00000  -0.01686  -0.01707   1.87580
    A5        1.89337  -0.00314   0.00000  -0.01745  -0.01766   1.87571
    A6        1.88866  -0.00228   0.00000  -0.01751  -0.01751   1.87115
    A7        1.95069   0.00485   0.00000   0.02845   0.02829   1.97897
    A8        1.91073  -0.00116   0.00000  -0.00165  -0.00178   1.90895
    A9        1.91048  -0.00115   0.00000  -0.00151  -0.00165   1.90883
   A10        1.91069  -0.00114   0.00000  -0.00143  -0.00156   1.90914
   A11        1.91044  -0.00113   0.00000  -0.00129  -0.00143   1.90901
   A12        1.86900  -0.00050   0.00000  -0.02489  -0.02493   1.84407
   A13        1.92652   0.00467   0.00000   0.03072   0.03049   1.95701
   A14        1.93094   0.00175   0.00000   0.00955   0.00944   1.94038
   A15        1.93094   0.00175   0.00000   0.00956   0.00945   1.94038
   A16        1.89194  -0.00306   0.00000  -0.01651  -0.01673   1.87522
   A17        1.89194  -0.00306   0.00000  -0.01653  -0.01674   1.87520
   A18        1.89041  -0.00237   0.00000  -0.01872  -0.01871   1.87169
    D1        3.14159  -0.00001   0.00000  -0.00015  -0.00015   3.14145
    D2       -1.02162   0.00096   0.00000   0.01568   0.01569  -1.00593
    D3        1.02211  -0.00098   0.00000  -0.01621  -0.01622   1.00589
    D4       -1.04631   0.00030   0.00000   0.00480   0.00485  -1.04145
    D5        1.07367   0.00126   0.00000   0.02062   0.02069   1.09435
    D6        3.11740  -0.00068   0.00000  -0.01126  -0.01122   3.10618
    D7        1.04596  -0.00028   0.00000  -0.00450  -0.00455   1.04141
    D8       -3.11726   0.00069   0.00000   0.01132   0.01128  -3.10597
    D9       -1.07352  -0.00125   0.00000  -0.02056  -0.02063  -1.09415
   D10        3.14159  -0.00000   0.00000  -0.00005  -0.00006   3.14154
   D11       -1.04752   0.00034   0.00000   0.00544   0.00550  -1.04202
   D12        1.04752  -0.00034   0.00000  -0.00553  -0.00559   1.04192
   D13        1.02160  -0.00096   0.00000  -0.01575  -0.01576   1.00583
   D14        3.11567  -0.00062   0.00000  -0.01026  -0.01021   3.10546
   D15       -1.07248  -0.00130   0.00000  -0.02123  -0.02130  -1.09378
   D16       -1.02209   0.00096   0.00000   0.01588   0.01590  -1.00619
   D17        1.07199   0.00130   0.00000   0.02138   0.02145   1.09344
   D18       -3.11617   0.00062   0.00000   0.01041   0.01036  -3.10581
         Item               Value     Threshold  Converged?
 Maximum Force            0.016307     0.000450     NO 
 RMS     Force            0.004948     0.000300     NO 
 Maximum Displacement     0.082196     0.001800     NO 
 RMS     Displacement     0.036394     0.001200     NO 
 Predicted change in Energy=-2.069981D-03
 GradGradGradGradGradGradGradGradGradGradGradGradGradGradGradGradGradGrad

                          Input orientation:                          
 ---------------------------------------------------------------------
 Center     Atomic      Atomic             Coordinates (Angstroms)
 Number     Number       Type             X           Y           Z
 ---------------------------------------------------------------------
      1          6           0       -5.492602    1.927655   -0.071813
      2          6           0       -3.958199    1.906231   -0.071814
      3          1           0       -5.894347    2.956331   -0.071577
      4          1           0       -5.898807    1.412948   -0.961375
      5          1           0       -5.898619    1.412701    0.817733
      6          6           0       -3.368847    0.489494   -0.071932
      7          1           0       -3.582979    2.460570   -0.954250
      8          1           0       -3.583095    2.460252    0.810929
      9          1           0       -2.264422    0.498334   -0.071987
     10          1           0       -3.695504   -0.078811    0.817751
     11          1           0       -3.695577   -0.078707   -0.961665
 ---------------------------------------------------------------------
                    Distance matrix (angstroms):
                    1          2          3          4          5
     1  C    0.000000
     2  C    1.534552   0.000000
     3  H    1.104343   2.202584   0.000000
     4  H    1.105101   2.191028   1.781514   0.000000
     5  H    1.105133   2.190912   1.781484   1.779109   0.000000
     6  C    2.564886   1.534432   3.530359   2.836296   2.836118
     7  H    2.170104   1.107599   2.523353   2.541775   3.098409
     8  H    2.170048   1.107645   2.523251   3.098456   2.541468
     9  H    3.530454   2.202511   4.383846   3.851790   3.851631
    10  H    2.836687   2.191056   3.852000   3.200810   2.660513
    11  H    2.836657   2.191069   3.852052   2.660687   3.200617
                    6          7          8          9         10
     6  C    0.000000
     7  H    2.170134   0.000000
     8  H    2.170077   1.765179   0.000000
     9  H    1.104460   2.523361   2.523403   0.000000
    10  H    1.105084   3.098565   2.541559   1.781214   0.000000
    11  H    1.105092   2.541783   3.098556   1.781209   1.779416
                   11
    11  H    0.000000
 Stoichiometry    C3H8
 Framework group  C1[X(C3H8)]
 Deg. of freedom    27
 Full point group                 C1      NOp   1
 Largest Abelian subgroup         C1      NOp   1
 Largest concise Abelian subgroup C1      NOp   1
                         Standard orientation:                         
 ---------------------------------------------------------------------
 Center     Atomic      Atomic             Coordinates (Angstroms)
 Number     Number       Type             X           Y           Z
 ---------------------------------------------------------------------
      1          6           0       -1.282504   -0.258337    0.000025
      2          6           0        0.000019    0.584269    0.000024
      3          1           0       -2.191938    0.368163    0.000261
      4          1           0       -1.330250   -0.912284   -0.889537
      5          1           0       -1.329956   -0.912383    0.889572
      6          6           0        1.282383   -0.258361   -0.000094
      7          1           0       -0.000113    1.253658   -0.882411
      8          1           0       -0.000030    1.253329    0.882767
      9          1           0        2.191908    0.368215   -0.000149
     10          1           0        1.330556   -0.912084    0.889589
     11          1           0        1.330437   -0.912039   -0.889827
 ---------------------------------------------------------------------
 Rotational constants (GHZ):          29.2971886           8.2779876           7.3477926
 Standard basis: 6-31G(d) (6D, 7F)
 There are    61 symmetry adapted cartesian basis functions of A   symmetry.
 There are    61 symmetry adapted basis functions of A   symmetry.
    61 basis functions,   116 primitive gaussians,    61 cartesian basis functions
    13 alpha electrons       13 beta electrons
       nuclear repulsion energy        81.8768589458 Hartrees.
 NAtoms=   11 NActive=   11 NUniq=   11 SFac= 1.00D+00 NAtFMM=   60 NAOKFM=F Big=F
 Integral buffers will be    131072 words long.
 Raffenetti 2 integral format.
 Two-electron integral symmetry is turned on.
 One-electron integrals computed using PRISM.
 NBasis=    61 RedAO= T EigKep=  6.41D-03  NBF=    61
 NBsUse=    61 1.00D-06 EigRej= -1.00D+00 NBFU=    61
 Initial guess from the checkpoint file:  "propane_hessian.chk"
 B after Tr=    -0.000000   -0.000000    0.000000
         Rot=    1.000000   -0.000007   -0.000009   -0.000074 Ang=  -0.01 deg.
 ExpMin= 1.61D-01 ExpMax= 3.05D+03 ExpMxC= 4.57D+02 IAcc=3 IRadAn=         5 AccDes= 0.00D+00
 Harris functional with IExCor= 1009 and IRadAn=       5 diagonalized for initial guess.
 HarFok:  IExCor= 1009 AccDes= 0.00D+00 IRadAn=         5 IDoV= 1 UseB2=F ITyADJ=14
 ICtDFT=  3500011 ScaDFX=  1.000000  1.000000  1.000000  1.000000
 FoFCou: FMM=F IPFlag=           0 FMFlag=      100000 FMFlg1=           0
         NFxFlg=           0 DoJE=T BraDBF=F KetDBF=T FulRan=T
         wScrn=  0.000000 ICntrl=       500 IOpCl=  0 I1Cent=   200000004 NGrid=           0
         NMat0=    1 NMatS0=      1 NMatT0=    0 NMatD0=    1 NMtDS0=    0 NMtDT0=    0
 Petite list used in FoFCou.
 Keep J ints in memory in canonical form, NReq=23033988.
 Requested convergence on RMS density matrix=1.00D-08 within 128 cycles.
 Requested convergence on MAX density matrix=1.00D-06.
 Requested convergence on             energy=1.00D-06.
 No special actions if energy rises.
 Integral accuracy reduced to 1.0D-05 until final iterations.
 Initial convergence to 1.0D-05 achieved.  Increase integral accuracy.
 SCF Done:  E(RPBE-PBE) =  -118.954940865     A.U. after   10 cycles
            NFock= 10  Conv=0.85D-08     -V/T= 2.0111
 Calling FoFJK, ICntrl=      2527 FMM=F ISym2X=0 I1Cent= 0 IOpClX= 0 NMat=1 NMatS=1 NMatT=0.
 ***** Axes restored to original set *****
 -------------------------------------------------------------------
 Center     Atomic                   Forces (Hartrees/Bohr)
 Number     Number              X              Y              Z
 -------------------------------------------------------------------
      1        6          -0.000154393   -0.001162770    0.000027148
      2        6           0.001000773    0.001586457    0.000028142
      3        1           0.001038866   -0.000065115   -0.000004568
      4        1           0.000210497   -0.000081632   -0.000059334
      5        1           0.000207791   -0.000076117    0.000040384
      6        6          -0.000814676   -0.000592027   -0.000010576
      7        1          -0.000282508   -0.000437616    0.000248848
      8        1          -0.000288788   -0.000443023   -0.000274315
      9        1          -0.000497222    0.000965762    0.000001208
     10        1          -0.000210944    0.000152172    0.000038617
     11        1          -0.000209397    0.000153911   -0.000035554
 -------------------------------------------------------------------
 Cartesian Forces:  Max     0.001586457 RMS     0.000525263

 GradGradGradGradGradGradGradGradGradGradGradGradGradGradGradGradGradGrad
 Berny optimization.
 Using GEDIIS/GDIIS optimizer.
 FormGI is forming the generalized inverse of G from B-inverse, IUseBI=4.
 Internal  Forces:  Max     0.001660584 RMS     0.000546235
 Search for a local minimum.
 Step number   2 out of a maximum of   56
 All quantities printed in internal units (Hartrees-Bohrs-Radians)
 Mixed Optimization -- En-DIIS/RFO-DIIS
 Update second derivatives using D2CorX and points    1    2
 DE= -1.86D-03 DEPred=-2.07D-03 R= 8.98D-01
 TightC=F SS=  1.41D+00  RLast= 1.35D-01 DXNew= 5.0454D-01 4.0631D-01
 Trust test= 8.98D-01 RLast= 1.35D-01 DXMaxT set to 4.06D-01
 ITU=  1  0
 Use linear search instead of GDIIS.
     Eigenvalues ---    0.00660   0.00667   0.03671   0.05112   0.05572
     Eigenvalues ---    0.05577   0.05694   0.05721   0.08635   0.12389
     Eigenvalues ---    0.15947   0.16000   0.16000   0.16000   0.16000
     Eigenvalues ---    0.16820   0.22284   0.30188   0.31354   0.31578
     Eigenvalues ---    0.31651   0.31844   0.31896   0.31928   0.31945
     Eigenvalues ---    0.31979   0.33179
 RFO step:  Lambda=-4.27077433D-05 EMin= 6.60122866D-03
 Quartic linear search produced a step of -0.07117.
 Iteration  1 RMS(Cart)=  0.00535521 RMS(Int)=  0.00000797
 Iteration  2 RMS(Cart)=  0.00000999 RMS(Int)=  0.00000443
 Iteration  3 RMS(Cart)=  0.00000000 RMS(Int)=  0.00000443
 Variable       Old X    -DE/DX   Delta X   Delta X   Delta X     New X
                                 (Linear)    (Quad)   (Total)
[...]
   R10        2.08810  -0.00000   0.00000  -0.00003  -0.00003   2.08807
    A1        1.94930   0.00001   0.00000   0.00003   0.00003   1.94933
    A2        1.93949  -0.00002   0.00000  -0.00021  -0.00021   1.93928
    A3        1.93949  -0.00002   0.00000  -0.00021  -0.00021   1.93928
    A4        1.87926   0.00001   0.00000   0.00011   0.00011   1.87937
    A5        1.87925   0.00001   0.00000   0.00011   0.00011   1.87937
    A6        1.87376   0.00002   0.00000   0.00019   0.00019   1.87395
    A7        1.97055  -0.00003   0.00000  -0.00033  -0.00033   1.97022
    A8        1.91015   0.00001   0.00000   0.00001   0.00001   1.91016
    A9        1.91014   0.00001   0.00000   0.00002   0.00002   1.91016
   A10        1.91016   0.00001   0.00000  -0.00000  -0.00000   1.91016
   A11        1.91016   0.00000   0.00000  -0.00000  -0.00000   1.91016
   A12        1.84871   0.00001   0.00000   0.00034   0.00034   1.84905
   A13        1.94932   0.00000   0.00000   0.00002   0.00002   1.94933
   A14        1.93951  -0.00002   0.00000  -0.00023  -0.00023   1.93928
   A15        1.93951  -0.00002   0.00000  -0.00023  -0.00023   1.93928
   A16        1.87922   0.00001   0.00000   0.00015   0.00015   1.87937
   A17        1.87922   0.00001   0.00000   0.00015   0.00015   1.87937
   A18        1.87377   0.00002   0.00000   0.00017   0.00017   1.87395
    D1        3.14159   0.00000   0.00000   0.00000   0.00000   3.14159
    D2       -1.00939  -0.00001   0.00000  -0.00022  -0.00022  -1.00960
    D3        1.00939   0.00001   0.00000   0.00021   0.00021   1.00960
    D4       -1.04268   0.00000   0.00000   0.00002   0.00002  -1.04266
    D5        1.08953  -0.00001   0.00000  -0.00020  -0.00020   1.08933
    D6        3.10830   0.00001   0.00000   0.00023   0.00023   3.10853
    D7        1.04269  -0.00000   0.00000  -0.00002  -0.00002   1.04266
    D8       -3.10829  -0.00001   0.00000  -0.00024  -0.00024  -3.10853
    D9       -1.08951   0.00001   0.00000   0.00019   0.00019  -1.08933
   D10        3.14154  -0.00000   0.00000   0.00005   0.00005   3.14159
   D11       -1.04276   0.00000   0.00000   0.00009   0.00009  -1.04266
   D12        1.04266  -0.00000   0.00000   0.00001   0.00001   1.04266
   D13        1.00934   0.00001   0.00000   0.00026   0.00026   1.00960
   D14        3.10823   0.00001   0.00000   0.00031   0.00031   3.10853
   D15       -1.08954   0.00000   0.00000   0.00022   0.00022  -1.08933
   D16       -1.00946  -0.00001   0.00000  -0.00014  -0.00014  -1.00960
   D17        1.08943  -0.00000   0.00000  -0.00010  -0.00010   1.08933
   D18       -3.10834  -0.00001   0.00000  -0.00019  -0.00019  -3.10853
         Item               Value     Threshold  Converged?
 Maximum Force            0.000098     0.000450     YES
 RMS     Force            0.000022     0.000300     YES
 Maximum Displacement     0.000525     0.001800     YES
 RMS     Displacement     0.000227     0.001200     YES
 Predicted change in Energy=-6.867801D-08
 Optimization completed.
    -- Stationary point found.
                           ----------------------------
                           !   Optimized Parameters   !
                           ! (Angstroms and Degrees)  !
 --------------------------                            --------------------------
 ! Name  Definition              Value          Derivative Info.                !
 --------------------------------------------------------------------------------
 ! R1    R(1,2)                  1.533          -DE/DX =    0.0001              !
 ! R2    R(1,3)                  1.1038         -DE/DX =    0.0                 !
 ! R3    R(1,4)                  1.105          -DE/DX =    0.0                 !
 ! R4    R(1,5)                  1.105          -DE/DX =    0.0                 !
 ! R5    R(2,6)                  1.5329         -DE/DX =    0.0001              !
 ! R6    R(2,7)                  1.1066         -DE/DX =    0.0                 !
 ! R7    R(2,8)                  1.1066         -DE/DX =    0.0                 !
 ! R8    R(6,9)                  1.1038         -DE/DX =    0.0                 !
 ! R9    R(6,10)                 1.105          -DE/DX =    0.0                 !
 ! R10   R(6,11)                 1.105          -DE/DX =    0.0                 !
 ! A1    A(2,1,3)              111.6867         -DE/DX =    0.0                 !
 ! A2    A(2,1,4)              111.1248         -DE/DX =    0.0                 !
 ! A3    A(2,1,5)              111.1244         -DE/DX =    0.0                 !
 ! A4    A(3,1,4)              107.6737         -DE/DX =    0.0                 !
 ! A5    A(3,1,5)              107.6734         -DE/DX =    0.0                 !
 ! A6    A(4,1,5)              107.3586         -DE/DX =    0.0                 !
 ! A7    A(1,2,6)              112.9043         -DE/DX =    0.0                 !
 ! A8    A(1,2,7)              109.4433         -DE/DX =    0.0                 !
 ! A9    A(1,2,8)              109.4427         -DE/DX =    0.0                 !
 ! A10   A(6,2,7)              109.4442         -DE/DX =    0.0                 !
 ! A11   A(6,2,8)              109.4441         -DE/DX =    0.0                 !
 ! A12   A(7,2,8)              105.9232         -DE/DX =    0.0                 !
 ! A13   A(2,6,9)              111.6876         -DE/DX =    0.0                 !
 ! A14   A(2,6,10)             111.1258         -DE/DX =    0.0                 !
 ! A15   A(2,6,11)             111.126          -DE/DX =    0.0                 !
 ! A16   A(9,6,10)             107.6713         -DE/DX =    0.0                 !
 ! A17   A(9,6,11)             107.6712         -DE/DX =    0.0                 !
 ! A18   A(10,6,11)            107.3594         -DE/DX =    0.0                 !
 ! D1    D(3,1,2,6)            179.9998         -DE/DX =    0.0                 !
 ! D2    D(3,1,2,7)            -57.8335         -DE/DX =    0.0                 !
 ! D3    D(3,1,2,8)             57.8337         -DE/DX =    0.0                 !
 ! D4    D(4,1,2,6)            -59.7413         -DE/DX =    0.0                 !
 ! D5    D(4,1,2,7)             62.4254         -DE/DX =    0.0                 !
 ! D6    D(4,1,2,8)            178.0926         -DE/DX =    0.0                 !
 ! D7    D(5,1,2,6)             59.7415         -DE/DX =    0.0                 !
 ! D8    D(5,1,2,7)           -178.0918         -DE/DX =    0.0                 !
 ! D9    D(5,1,2,8)            -62.4246         -DE/DX =    0.0                 !
 ! D10   D(1,2,6,9)            179.9971         -DE/DX =    0.0                 !
 ! D11   D(1,2,6,10)           -59.7456         -DE/DX =    0.0                 !
 ! D12   D(1,2,6,11)            59.7399         -DE/DX =    0.0                 !
 ! D13   D(7,2,6,9)             57.8309         -DE/DX =    0.0                 !
 ! D14   D(7,2,6,10)           178.0882         -DE/DX =    0.0                 !
 ! D15   D(7,2,6,11)           -62.4263         -DE/DX =    0.0                 !
 ! D16   D(8,2,6,9)            -57.8377         -DE/DX =    0.0                 !
 ! D17   D(8,2,6,10)            62.4196         -DE/DX =    0.0                 !
 ! D18   D(8,2,6,11)          -178.0948         -DE/DX =    0.0                 !
 --------------------------------------------------------------------------------
 GradGradGradGradGradGradGradGradGradGradGradGradGradGradGradGradGradGrad


 ----------------------------------------------------------------------

 Electric dipole moment (input orientation):
 (Debye = 10**-18 statcoulomb cm , SI units = C m)
                  (au)            (Debye)         (10**-30 SI)
   Tot        0.212917D-01      0.541180D-01      0.180518D+00
   x          0.119422D-01      0.303541D-01      0.101250D+00
   y          0.176272D-01      0.448039D-01      0.149450D+00
   z          0.000000D+00      0.000000D+00      0.000000D+00

 Dipole polarizability, Alpha (input orientation).
 (esu units = cm**3 , SI units = C**2 m**2 J**-1)
 Alpha(0;0):
               (au)            (10**-24 esu)      (10**-40 SI)
   iso        0.343396D+02      0.508860D+01      0.566184D+01
   aniso      0.449960D+01      0.666772D+00      0.741884D+00
   xx         0.360436D+02      0.534111D+01      0.594278D+01
   yx        -0.184512D+01     -0.273418D+00     -0.304218D+00
   yy         0.345677D+02      0.512241D+01      0.569945D+01
   zx        -0.269691D-03     -0.399641D-04     -0.444660D-04
   zy         0.290707D-03      0.430784D-04      0.479312D-04
   zz         0.324075D+02      0.480229D+01      0.534327D+01

 ----------------------------------------------------------------------

 Dipole orientation:
     6         -8.72222727          6.07227773         -2.80917421
     6         -6.72359092          4.71863596         -1.20758435
     1        -10.14108632          7.03353474         -1.62027465
     1         -7.84867375          7.51244911         -4.04326375
     1         -9.73575692          4.72659628         -4.04289544
     6         -4.72444031          3.36423597         -2.80780792
     1         -5.78765598          6.10098055          0.05188402
     1         -7.66000423          3.33691746          0.05221442
     1         -3.30590823          2.40361594         -1.61797594
     1         -5.59752283          1.92335319         -4.04140068
     1         -3.71049568          4.70926397         -4.04190045

 Electric dipole moment (dipole orientation):
 (Debye = 10**-18 statcoulomb cm , SI units = C m)
                  (au)            (Debye)         (10**-30 SI)
   Tot        0.212917D-01      0.541180D-01      0.180518D+00
   x          0.000000D+00      0.000000D+00      0.000000D+00
   y          0.000000D+00      0.000000D+00      0.000000D+00
   z          0.212917D-01      0.541180D-01      0.180518D+00

 Dipole polarizability, Alpha (dipole orientation).
 (esu units = cm**3 , SI units = C**2 m**2 J**-1)
 Alpha(0;0):
               (au)            (10**-24 esu)      (10**-40 SI)
   iso        0.343396D+02      0.508860D+01      0.566184D+01
   aniso      0.449960D+01      0.666772D+00      0.741884D+00
   xx         0.357563D+02      0.529854D+01      0.589542D+01
   yx        -0.226840D+01     -0.336143D+00     -0.374009D+00
   yy         0.339440D+02      0.502999D+01      0.559662D+01
   zx         0.992150D-03      0.147021D-03      0.163583D-03
   zy        -0.548294D-03     -0.812487D-04     -0.904014D-04
   zz         0.333185D+02      0.493729D+01      0.549347D+01

 ----------------------------------------------------------------------
 1\1\GINC-TCN1109\Freq\RPBEPBE\6-31G(d)\C3H8\SELSAMI\30-Nov-2019\0\\#N 
 Geom=AllCheck Guess=TCheck SCRF=Check GenChk RPBEPBE/6-31G(d) Freq\\pr
 opane_hessian\\0,1\C,-5.4894531329,1.9234750929,-0.0717533407\C,-3.956
 5554032,1.9086684632,-0.0717551349\H,-5.8874041029,2.9530106149,-0.071
 6190353\H,-5.8926851875,1.4080737819,-0.9621107563\H,-5.8926772922,1.4
 078506363,0.8184788578\C,-3.3736114891,0.4908896659,-0.0719344276\H,-3
 .5828428328,2.4607421321,-0.955015845\H,-3.5828544728,2.4605115326,0.8
 11654194\H,-2.2699069898,0.5036666274,-0.0719854909\H,-3.7024638133,-0
 .0750387602,0.8183196877\H,-3.7025452835,-0.074849787,-0.9622787088\\V
 ersion=ES64L-G16RevB.01\State=1-A\HF=-118.9549742\RMSD=2.441e-09\RMSF=
 4.229e-05\ZeroPoint=0.1016244\Thermal=0.1061897\Dipole=0.0119422,0.017
 6272,0.0000045\DipoleDeriv=0.0285445,0.014729,0.0000041,0.0522472,0.06
 43201,-0.0000047,0.0000069,-0.0000017,0.1059582,0.1483643,-0.0213914,-
 0.0000031,-0.021394,0.1312609,-0.0000022,-0.0000049,-0.0000068,0.14521
 5,-0.0273774,0.0817137,0.0000102,0.104795,-0.1331552,-0.0000265,0.0000
 127,-0.0000269,0.0706204,-0.0076254,-0.0264071,-0.0431217,-0.0601492,0
 .013863,-0.0916489,-0.0780537,-0.082939,-0.0828013,-0.0076237,-0.02641
 93,0.0431136,-0.0601693,0.0138195,0.0916727,0.0780384,0.0829636,-0.082
 7598,0.0363003,0.0553368,0.0000049,0.0178184,0.0565818,-0.0000065,0.00
 00042,-0.0000061,0.1059591,-0.0345812,-0.0192764,0.0611562,-0.0192761,
 -0.0500216,0.0903339,0.0725939,0.1072271,-0.083599,-0.034579,-0.019259
 6,-0.0611595,-0.0192589,-0.0499714,-0.0903237,-0.0725981,-0.1072183,-0
 .0836511,-0.1828934,0.0426112,0.0000147,0.0195342,0.0223401,-0.0000044
 ,0.0000129,-0.0000063,0.0706219,0.0407404,-0.0408207,0.0690839,-0.0070
 75,-0.0345389,0.0740792,0.0480337,0.1032775,-0.082767,0.0407305,-0.040
 8162,-0.0691032,-0.0070722,-0.0344983,-0.0740691,-0.0480459,-0.1032631
 ,-0.0827965\Polar=36.0435839,-1.8451153,34.5677344,-0.0002697,0.000290
 7,32.4074813\Quadrupole=-0.1516595,-0.0754983,0.2271578,0.0950447,0.00
 00042,-0.0000327\PG=C01 [X(C3H8)]\NImag=0\\0.45850419,-0.00337993,0.55
 252137,0.00000087,0.00000256,0.54372383,-0.19221096,-0.00334746,-0.000
 00045,0.46429215,-0.00168431,-0.07446029,0.00000050,0.03510547,0.49241
 349,-0.00000027,0.00000028,-0.07574932,0.00000309,-0.00000990,0.566675
 63,-0.07510266,0.08263694,0.00001062,-0.00991879,0.03160148,0.00000400
 ,0.08332019,0.08300253,-0.27032505,-0.00002929,-0.00173486,0.00166099,
 0.00000044,-0.09140220,0.29194809,0.00001069,-0.00002933,-0.04572840,-
 0.00000021,0.00000036,-0.00176008,-0.00001182,0.00003205,0.04500025,-0
 .07520045,-0.04088661,-0.07130516,-0.01294674,-0.01563145,-0.02785148,
 0.00339930,0.00450658,0.00990817,0.08469529,-0.04084542,-0.10115950,-0
 .09526744,-0.00032642,-0.00109666,0.00030216,-0.01096231,-0.01288572,-
 0.02460961,0.04581674,0.10595541,-0.07123331,-0.09527702,-0.21193509,0
 .00029051,0.00053186,0.00044980,0.00103471,0.00125352,0.00049091,0.079
 11460,0.10532542,0.22798647,-0.07519905,-0.04090357,0.07129345,-0.0129
 4691,-0.01563879,0.02784774,0.00339924,0.00450913,-0.00990704,0.003434
 14,0.00627925,-0.00899787,0.08469415,-0.04086232,-0.10120711,0.0952950
 6,-0.00032638,-0.00109636,-0.00030258,-0.01096188,-0.01289182,0.024606
 44,0.00627691,0.00716851,-0.01294314,0.04583566,0.10600824,0.07122171,
 0.09530478,-0.21188814,-0.00029052,-0.00053216,0.00044943,-0.00103746,
 -0.00125686,0.00049686,0.00899925,0.01294991,-0.01998754,-0.07910159,-
 0.10535607,0.22793452,-0.01731555,0.03326556,0.00000436,-0.08896409,0.
 03795673,0.00000460,-0.00676761,0.00070614,0.00000007,0.00168741,0.000
 47829,0.00033165,0.00168748,0.00047825,-0.00033154,0.54186239,0.006069
 62,-0.00158415,-0.00000047,0.03961941,-0.17773764,-0.00001282,-0.00221
 899,0.00120180,0.00000003,-0.00148464,0.00090903,0.00008019,-0.0014845
 7,0.00090925,-0.00008004,0.02994451,0.46917430,0.00000091,-0.00000049,
 -0.00003180,0.00000524,-0.00001248,-0.07574910,-0.00000019,0.,0.000378
 41,-0.00070176,0.00115167,0.00025936,0.00070132,-0.00115138,0.00025909
 ,0.00000294,-0.00000934,0.54372666,-0.01341345,-0.01587583,0.02729628,
 -0.07130919,-0.04089372,0.06468123,0.00119370,0.00043643,-0.00000929,0
 .00137584,-0.00021420,-0.00039412,-0.00677593,0.00012676,-0.00036733,0
 .00356336,0.00688661,-0.01082878,0.08189219,0.00009550,-0.00003050,-0.
 00074586,-0.04089333,-0.10403876,0.09555176,-0.00020895,0.00044995,-0.
 00037961,-0.00012076,-0.00017579,0.00022098,0.00040154,0.00094788,-0.0
 0010182,-0.00908273,-0.01701059,0.02506803,0.04197481,0.11548823,-0.00
 047344,-0.00078861,0.00035594,0.06487365,0.09583660,-0.20670182,0.0004
 7307,-0.00030084,0.00006180,0.00030769,-0.00009150,0.00085637,-0.00034
 599,-0.00047262,0.00170537,-0.00055754,-0.00073450,0.00035908,-0.07186
 897,-0.10616911,0.22179628,-0.01341374,-0.01586890,-0.02730061,-0.0713
 0734,-0.04087540,-0.06469005,0.00119367,0.00043643,0.00000939,-0.00677
 593,0.00012666,0.00036734,0.00137586,-0.00021430,0.00039404,0.00356363
 ,0.00688367,0.01083033,0.00314500,0.00567144,0.00855563,0.08189049,0.0
 0009535,-0.00003090,0.00074567,-0.04087519,-0.10398843,-0.09552554,-0.
 00020882,0.00044978,0.00037971,0.00040143,0.00094771,0.00010162,-0.000
 12068,-0.00017576,-0.00022125,-0.00908325,-0.01700480,-0.02507231,0.00
 567352,0.00768233,0.01263871,0.04195514,0.11543299,0.00047335,0.000788
 27,0.00035603,-0.06488294,-0.09581079,-0.20675384,-0.00047311,0.000300
 95,0.00006197,0.00034606,0.00047246,0.00170552,-0.00030768,0.00009123,
 0.00085639,0.00055514,0.00073031,0.00035299,-0.00855384,-0.01263109,-0
 .02105677,0.07187835,0.10614182,0.22185376,0.00062483,0.00366248,0.000
 00048,-0.01023342,-0.00186042,0.00000006,-0.00089631,-0.00000505,0.000
 00002,0.00034970,-0.00012359,0.00005159,0.00034968,-0.00012358,-0.0000
 5161,-0.30049702,-0.00714080,0.00001134,0.00047409,0.00014867,-0.00045
 507,0.00047394,0.00014861,0.00045504,0.32619177,0.00073726,-0.00619024
 ,-0.00000090,0.03147619,0.00197542,-0.00000071,0.00213807,-0.00004319,
 -0.00000006,-0.00010271,-0.00004247,0.00026571,-0.00010261,-0.00004240
 ,-0.00026577,-0.00750640,-0.04491444,0.00000032,-0.00049666,0.00116964
 ,0.00032763,-0.00049683,0.00116949,-0.00032736,0.00573050,0.04906191,-
 0.00000002,-0.00000076,0.00037847,0.00000366,0.00000065,-0.00176027,0.
 00000024,-0.00000004,0.00057574,0.00046322,0.00002548,0.00021130,-0.00
 046326,-0.00002555,0.00021122,0.00001147,0.00000029,-0.04572932,-0.000
 34913,-0.00014955,0.00006203,0.00034895,0.00014983,0.00006180,-0.00001
 261,0.00000004,0.04500240,0.00136337,0.00034875,-0.00132958,0.00277222
 ,0.00596119,-0.01062184,0.00008962,-0.00022759,0.00014833,-0.00005154,
 0.00002151,-0.00002895,0.00003289,-0.00025062,0.00053608,-0.06940442,-
 0.03853922,0.06197777,-0.00029922,0.00271674,-0.00030984,0.00015374,-0
 .00070301,0.00019904,-0.00841737,-0.01569127,0.02652686,0.07143662,-0.
 00161406,0.00123308,0.00022379,-0.00934784,-0.01681886,0.02574484,-0.0
 0020662,0.00021764,-0.00043956,0.00016631,0.00002357,-0.00006549,0.001
 05825,0.00035599,-0.00050622,-0.03858042,-0.10699280,0.10159670,0.0029
 9173,-0.00552866,-0.00049760,-0.00060944,0.00104646,-0.00025173,-0.000
 21831,-0.00107170,-0.00006116,0.04052756,0.11925685,0.00004854,-0.0003
 3752,0.00025916,-0.00038725,-0.00046960,0.00045311,-0.00022759,-0.0001
 4657,0.00021120,0.00005010,0.00005122,-0.00011111,-0.00066905,0.000309
 82,0.00007395,0.06201364,0.10153407,-0.21189697,0.00004236,-0.00037990
 ,0.00170544,-0.00035171,0.00028384,0.00085652,-0.00077985,-0.00142705,
 0.00049195,-0.06841808,-0.11258369,0.22794359,0.00136347,0.00034856,0.
 00132974,0.00277305,0.00595921,0.01062293,0.00008965,-0.00022755,-0.00
 014830,0.00003299,-0.00025052,-0.00053615,-0.00005156,0.00002149,0.000
 02898,-0.06941558,-0.03853562,-0.06199912,0.00015361,-0.00070293,-0.00
 019919,-0.00029932,0.00271691,0.00031061,-0.00841989,-0.01568555,-0.02
 652938,0.00232410,0.00583283,0.00867890,0.07144948,-0.00161421,0.00123
 329,-0.00022362,-0.00934961,-0.01681290,-0.02574792,-0.00020674,0.0002
 1754,0.00043958,0.00105820,0.00035590,0.00050634,0.00016636,0.00002359
 ,0.00006551,-0.03857669,-0.10694996,-0.10157073,-0.00060947,0.00104627
 ,0.00025184,0.00299154,-0.00552886,0.00049593,-0.00021850,-0.00107201,
 0.00006078,0.00583595,0.00827843,0.01316536,0.04052316,0.11920871,-0.0
 0004903,0.00033783,0.00025931,0.00038522,0.00046494,0.00044646,0.00022
 754,0.00014663,0.00021133,0.00066932,-0.00030976,0.00007400,-0.0000500
 3,-0.00005122,-0.00011115,-0.06203479,-0.10150770,-0.21192840,0.000351
 60,-0.00028382,0.00085627,-0.00004164,0.00037791,0.00170564,0.00078060
 ,0.00142816,0.00049468,-0.00867978,-0.01315988,-0.01998682,0.06844099,
 0.11255693,0.22797869\\0.00012866,-0.00000131,-0.00000061,-0.00006948,
 -0.00011956,-0.00000005,-0.00000457,0.00000898,0.00000025,-0.00001770,
 -0.00000179,0.00000390,-0.00001743,-0.00000156,-0.00000361,-0.00006344
 ,0.00013029,-0.00000002,0.00000746,0.00001171,0.00001207,0.00000646,0.
 00001142,-0.00001184,0.00001382,-0.00000369,-0.00000036,0.00000814,-0.
 00001708,-0.00000294,0.00000809,-0.00001742,0.00000321\\\@


 FAULTILY FAULTLESS, ICILY REGULAR, SPLENDIDLY NULL...
           MAUDE BY TENNYSON
 Job cpu time:       0 days  0 hours  2 minutes 23.9 seconds.
 Elapsed time:       0 days  0 hours  0 minutes  6.5 seconds.
 File lengths (MBytes):  RWF=      8 Int=      0 D2E=      0 Chk=      2 Scr=      1
 Normal termination of Gaussian 16 at Sat Nov 30 12:59:03 2019.
