 Entering Gaussian System, Link 0=g16
 Initial command:
 /hpc/sw/g16-B.01-avx//g16/l1.exe "/scratch-local/selsami/Gau-19418.inp" -scrdir="/scratch-local/selsami/"
 Entering Link 1 = /hpc/sw/g16-B.01-avx//g16/l1.exe PID=     19421.
  
 Copyright (c) 1988-2017, Gaussian, Inc.  All Rights Reserved.
  
 This is part of the Gaussian(R) 16 program.  It is based on
 the Gaussian(R) 09 system (copyright 2009, Gaussian, Inc.),
 the Gaussian(R) 03 system (copyright 2003, Gaussian, Inc.),
 the Gaussian(R) 98 system (copyright 1998, Gaussian, Inc.),
 the Gaussian(R) 94 system (copyright 1995, Gaussian, Inc.),
 the Gaussian 92(TM) system (copyright 1992, Gaussian, Inc.),
 the Gaussian 90(TM) system (copyright 1990, Gaussian, Inc.),
 the Gaussian 88(TM) system (copyright 1988, Gaussian, Inc.),
 the Gaussian 86(TM) system (copyright 1986, Carnegie Mellon
 University), and the Gaussian 82(TM) system (copyright 1983,
 Carnegie Mellon University). Gaussian is a federally registered
 trademark of Gaussian, Inc.
  
 This software contains proprietary and confidential information,
 including trade secrets, belonging to Gaussian, Inc.
  
 This software is provided under written license and may be
 used, copied, transmitted, or stored only in accord with that
 written license.
  
 The following legend is applicable only to US Government
 contracts under FAR:
  
                    RESTRICTED RIGHTS LEGEND
  
 Use, reproduction and disclosure by the US Government is
 subject to restrictions as set forth in subparagraphs (a)
 and (c) of the Commercial Computer Software - Restricted
 Rights clause in FAR 52.227-19.
  
 Gaussian, Inc.
 340 Quinnipiac St., Bldg. 40, Wallingford CT 06492
  
  
 ---------------------------------------------------------------
 Warning -- This program may not be used in any manner that
 competes with the business of Gaussian, Inc. or will provide
 assistance to any competitor of Gaussian, Inc.  The licensee
 of this program is prohibited from giving any competitor of
 Gaussian, Inc. access to this program.  By using this program,
 the user acknowledges that Gaussian, Inc. is engaged in the
 business of creating and licensing software in the field of
 computational chemistry and represents and warrants to the
 licensee that it is not a competitor of Gaussian, Inc. and that
 it will not use this program in any manner prohibited above.
 ---------------------------------------------------------------
  

 Cite this work as:
 Gaussian 16, Revision B.01,
 M. J. Frisch, G. W. Trucks, H. B. Schlegel, G. E. Scuseria, 
 M. A. Robb, J. R. Cheeseman, G. Scalmani, V. Barone, 
 G. A. Petersson, H. Nakatsuji, X. Li, M. Caricato, A. V. Marenich, 
 J. Bloino, B. G. Janesko, R. Gomperts, B. Mennucci, H. P. Hratchian, 
 J. V. Ortiz, A. F. Izmaylov, J. L. Sonnenberg, D. Williams-Young, 
 F. Ding, F. Lipparini, F. Egidi, J. Goings, B. Peng, A. Petrone, 
 T. Henderson, D. Ranasinghe, V. G. Zakrzewski, J. Gao, N. Rega, 
 G. Zheng, W. Liang, M. Hada, M. Ehara, K. Toyota, R. Fukuda, 
 J. Hasegawa, M. Ishida, T. Nakajima, Y. Honda, O. Kitao, H. Nakai, 
 T. Vreven, K. Throssell, J. A. Montgomery, Jr., J. E. Peralta, 
 F. Ogliaro, M. J. Bearpark, J. J. Heyd, E. N. Brothers, K. N. Kudin, 
 V. N. Staroverov, T. A. Keith, R. Kobayashi, J. Normand, 
 K. Raghavachari, A. P. Rendell, J. C. Burant, S. S. Iyengar, 
 J. Tomasi, M. Cossi, J. M. Millam, M. Klene, C. Adamo, R. Cammi, 
 J. W. Ochterski, R. L. Martin, K. Morokuma, O. Farkas, 
 J. B. Foresman, and D. J. Fox, Gaussian, Inc., Wallingford CT, 2016.
 
 ******************************************
 Gaussian 16:  ES64L-G16RevB.01 20-Dec-2017
                19-Nov-2019 
 ******************************************
 %nproc=24
 Will use up to   24 processors via shared memory.
 %mem=55GB
 %chk=/home/selsami/riccardo/benzene_pbe_631pg-d.chk
 -------------------------------------------------------------
 #p opt freq pbepbe 6-31+g(d) pop=(nboread,cm5) maxdisk=1000GB
 -------------------------------------------------------------
 1/18=20,19=15,26=3,38=1/1,3;
 2/9=110,12=2,17=6,18=5,40=1/2;
 3/5=1,6=6,7=11,11=2,25=1,30=1,71=1,74=1009/1,2,3;
 4//1;
 5/5=2,38=5/2;
 6/7=2,8=2,9=2,10=2,28=1,40=2,79=1/1,7;
 7//1,2,3,16;
 1/18=20,19=15,26=3/3(2);
 2/9=110/2;
 99//99;
 2/9=110/2;
 3/5=1,6=6,7=11,11=2,25=1,30=1,71=1,74=1009/1,2,3;
 4/5=5,16=3,69=1/1;
 5/5=2,38=5/2;
 7//1,2,3,16;
 1/18=20,19=15,26=3/3(-5);
 2/9=110/2;
 6/7=2,8=2,9=2,10=2,19=2,28=1,40=2,79=1/1,7;
 99/9=1/99;
 Leave Link    1 at Tue Nov 19 14:11:28 2019, MaxMem=  7381975040 cpu:               5.2 elap:               0.3
 (Enter /hpc/sw/g16-B.01-avx//g16/l101.exe)
 -------
 benzene
 -------
 Symbolic Z-matrix:
 Charge =  0 Multiplicity = 1
 C                     1.17771  -1.9944    0.00008 
 C                     2.5724   -1.99446   0.00063 
 C                     3.26972  -0.78684  -0.0001 
 C                     2.57243   0.42104  -0.00101 
 C                     1.17795   0.42109  -0.00141 
 C                     0.48051  -0.7867   -0.00101 
 H                     0.63207  -2.93956   0.00044 
 H                     3.11794  -2.93969   0.00137 
 H                     4.36106  -0.78673   0.00015 
 H                     3.1183    1.36606  -0.00147 
 H                     0.6322    1.36619  -0.00223 
 H                    -0.61084  -0.78654  -0.00135 
 
 ITRead=  0  0  0  0  0  0  0  0  0  0  0  0
 MicOpt= -1 -1 -1 -1 -1 -1 -1 -1 -1 -1 -1 -1
 NAtoms=     12 NQM=       12 NQMF=       0 NMMI=      0 NMMIF=      0
                NMic=       0 NMicF=      0.
                    Isotopes and Nuclear Properties:
 (Nuclear quadrupole moments (NQMom) in fm**2, nuclear magnetic moments (NMagM)
  in nuclear magnetons)

  Atom         1           2           3           4           5           6           7           8           9          10
 IAtWgt=          12          12          12          12          12          12           1           1           1           1
 AtmWgt=  12.0000000  12.0000000  12.0000000  12.0000000  12.0000000  12.0000000   1.0078250   1.0078250   1.0078250   1.0078250
 NucSpn=           0           0           0           0           0           0           1           1           1           1
 AtZEff=  -0.0000000  -0.0000000  -0.0000000  -0.0000000  -0.0000000  -0.0000000  -0.0000000  -0.0000000  -0.0000000  -0.0000000
 NQMom=    0.0000000   0.0000000   0.0000000   0.0000000   0.0000000   0.0000000   0.0000000   0.0000000   0.0000000   0.0000000
 NMagM=    0.0000000   0.0000000   0.0000000   0.0000000   0.0000000   0.0000000   2.7928460   2.7928460   2.7928460   2.7928460
 AtZNuc=   6.0000000   6.0000000   6.0000000   6.0000000   6.0000000   6.0000000   1.0000000   1.0000000   1.0000000   1.0000000

  Atom        11          12
 IAtWgt=           1           1
 AtmWgt=   1.0078250   1.0078250
 NucSpn=           1           1
 AtZEff=  -0.0000000  -0.0000000
 NQMom=    0.0000000   0.0000000
 NMagM=    2.7928460   2.7928460
 AtZNuc=   1.0000000   1.0000000
 Leave Link  101 at Tue Nov 19 14:11:29 2019, MaxMem=  7381975040 cpu:               7.3 elap:               0.3
 (Enter /hpc/sw/g16-B.01-avx//g16/l103.exe)

 GradGradGradGradGradGradGradGradGradGradGradGradGradGradGradGradGradGrad
 Berny optimization.
 Initialization pass.
                           ----------------------------
                           !    Initial Parameters    !
                           ! (Angstroms and Degrees)  !
 --------------------------                            --------------------------
 ! Name  Definition              Value          Derivative Info.                !
 --------------------------------------------------------------------------------
 ! R1    R(1,2)                  1.3947         estimate D2E/DX2                !
 ! R2    R(1,6)                  1.3945         estimate D2E/DX2                !
 ! R3    R(1,7)                  1.0914         estimate D2E/DX2                !
 ! R4    R(2,3)                  1.3945         estimate D2E/DX2                !
 ! R5    R(2,8)                  1.0914         estimate D2E/DX2                !
 ! R6    R(3,4)                  1.3947         estimate D2E/DX2                !
 ! R7    R(3,9)                  1.0913         estimate D2E/DX2                !
 ! R8    R(4,5)                  1.3945         estimate D2E/DX2                !
 ! R9    R(4,10)                 1.0913         estimate D2E/DX2                !
 ! R10   R(5,6)                  1.3947         estimate D2E/DX2                !
 ! R11   R(5,11)                 1.0914         estimate D2E/DX2                !
 ! R12   R(6,12)                 1.0914         estimate D2E/DX2                !
 ! A1    A(2,1,6)              119.9996         estimate D2E/DX2                !
 ! A2    A(2,1,7)              119.9957         estimate D2E/DX2                !
 ! A3    A(6,1,7)              120.0047         estimate D2E/DX2                !
 ! A4    A(1,2,3)              120.0014         estimate D2E/DX2                !
 ! A5    A(1,2,8)              119.9938         estimate D2E/DX2                !
 ! A6    A(3,2,8)              120.0048         estimate D2E/DX2                !
 ! A7    A(2,3,4)              119.9989         estimate D2E/DX2                !
 ! A8    A(2,3,9)              120.0095         estimate D2E/DX2                !
 ! A9    A(4,3,9)              119.9916         estimate D2E/DX2                !
 ! A10   A(3,4,5)              119.9997         estimate D2E/DX2                !
 ! A11   A(3,4,10)             119.9906         estimate D2E/DX2                !
 ! A12   A(5,4,10)             120.0097         estimate D2E/DX2                !
 ! A13   A(4,5,6)              120.0018         estimate D2E/DX2                !
 ! A14   A(4,5,11)             120.0066         estimate D2E/DX2                !
 ! A15   A(6,5,11)             119.9916         estimate D2E/DX2                !
 ! A16   A(1,6,5)              119.9986         estimate D2E/DX2                !
 ! A17   A(1,6,12)             120.0053         estimate D2E/DX2                !
 ! A18   A(5,6,12)             119.9961         estimate D2E/DX2                !
 ! D1    D(6,1,2,3)             -0.0092         estimate D2E/DX2                !
 ! D2    D(6,1,2,8)           -179.9937         estimate D2E/DX2                !
 ! D3    D(7,1,2,3)            179.9876         estimate D2E/DX2                !
 ! D4    D(7,1,2,8)              0.0031         estimate D2E/DX2                !
 ! D5    D(2,1,6,5)             -0.0062         estimate D2E/DX2                !
 ! D6    D(2,1,6,12)          -179.9948         estimate D2E/DX2                !
 ! D7    D(7,1,6,5)            179.997          estimate D2E/DX2                !
 ! D8    D(7,1,6,12)             0.0084         estimate D2E/DX2                !
 ! D9    D(1,2,3,4)              0.0171         estimate D2E/DX2                !
 ! D10   D(1,2,3,9)           -179.9891         estimate D2E/DX2                !
 ! D11   D(8,2,3,4)           -179.9983         estimate D2E/DX2                !
 ! D12   D(8,2,3,9)             -0.0046         estimate D2E/DX2                !
 ! D13   D(2,3,4,5)             -0.0097         estimate D2E/DX2                !
 ! D14   D(2,3,4,10)           179.9931         estimate D2E/DX2                !
 ! D15   D(9,3,4,5)            179.9966         estimate D2E/DX2                !
 ! D16   D(9,3,4,10)            -0.0006         estimate D2E/DX2                !
 ! D17   D(3,4,5,6)             -0.0057         estimate D2E/DX2                !
 ! D18   D(3,4,5,11)          -179.9932         estimate D2E/DX2                !
 ! D19   D(10,4,5,6)           179.9915         estimate D2E/DX2                !
 ! D20   D(10,4,5,11)            0.004          estimate D2E/DX2                !
 ! D21   D(4,5,6,1)              0.0136         estimate D2E/DX2                !
 ! D22   D(4,5,6,12)          -179.9977         estimate D2E/DX2                !
 ! D23   D(11,5,6,1)          -179.9988         estimate D2E/DX2                !
 ! D24   D(11,5,6,12)           -0.0102         estimate D2E/DX2                !
 --------------------------------------------------------------------------------
 Trust Radius=3.00D-01 FncErr=1.00D-07 GrdErr=1.00D-06 EigMax=2.50D+02 EigMin=1.00D-04
 Number of steps in this run=     64 maximum allowed number of steps=    100.
 GradGradGradGradGradGradGradGradGradGradGradGradGradGradGradGradGradGrad

 Leave Link  103 at Tue Nov 19 14:11:30 2019, MaxMem=  7381975040 cpu:               0.5 elap:               0.1
 (Enter /hpc/sw/g16-B.01-avx//g16/l202.exe)
                          Input orientation:                          
 ---------------------------------------------------------------------
 Center     Atomic      Atomic             Coordinates (Angstroms)
 Number     Number       Type             X           Y           Z
 ---------------------------------------------------------------------
      1          6           0        1.177707   -1.994403    0.000075
      2          6           0        2.572397   -1.994458    0.000625
      3          6           0        3.269722   -0.786837   -0.000099
      4          6           0        2.572428    0.421038   -0.001012
      5          6           0        1.177945    0.421093   -0.001405
      6          6           0        0.480512   -0.786696   -0.001005
      7          1           0        0.632065   -2.939560    0.000437
      8          1           0        3.117937   -2.939685    0.001367
      9          1           0        4.361064   -0.786727    0.000152
     10          1           0        3.118298    1.366055   -0.001465
     11          1           0        0.632198    1.366190   -0.002231
     12          1           0       -0.610839   -0.786544   -0.001350
 ---------------------------------------------------------------------
                    Distance matrix (angstroms):
                    1          2          3          4          5
     1  C    0.000000
     2  C    1.394690   0.000000
     3  C    2.415521   1.394493   0.000000
     4  C    2.789194   2.415497   1.394698   0.000000
     5  C    2.415496   2.789155   2.415497   1.394483   0.000000
     6  C    1.394503   2.415507   2.789210   2.415519   1.394693
     7  H    1.091351   2.158265   3.404622   3.880545   3.404699
     8  H    2.158252   1.091361   2.158193   3.404709   3.880516
     9  H    3.404738   2.158227   1.091342   2.158221   3.404567
    10  H    3.880538   3.404565   2.158211   1.091344   2.158222
    11  H    3.404581   3.880507   3.404712   2.158195   1.091352
    12  H    2.158199   3.404710   3.880561   3.404621   2.158271
                    6          7          8          9         10
     6  C    0.000000
     7  H    2.158192   0.000000
     8  H    3.404611   2.485872   0.000000
     9  H    3.880552   4.305824   2.486080   0.000000
    10  H    3.404740   4.971889   4.305741   2.485747   0.000000
    11  H    2.158223   4.305751   4.971868   4.305752   2.486100
    12  H    1.091351   2.486019   4.305786   4.971903   4.305827
                   11         12
    11  H    0.000000
    12  H    2.485841   0.000000
 Stoichiometry    C6H6
 Framework group  C1[X(C6H6)]
 Deg. of freedom    30
 Full point group                 C1      NOp   1
 Largest Abelian subgroup         C1      NOp   1
 Largest concise Abelian subgroup C1      NOp   1
                         Standard orientation:                         
 ---------------------------------------------------------------------
 Center     Atomic      Atomic             Coordinates (Angstroms)
 Number     Number       Type             X           Y           Z
 ---------------------------------------------------------------------
      1          6           0        1.107688   -0.847309   -0.000001
      2          6           0       -0.180060   -1.382906   -0.000099
      3          6           0       -1.287641   -0.535630    0.000075
      4          6           0       -1.107615    0.847400   -0.000015
      5          6           0        0.179942    1.382918   -0.000074
      6          6           0        1.287687    0.535529    0.000076
      7          1           0        1.974430   -1.510486    0.000067
      8          1           0       -0.320820   -2.465152   -0.000056
      9          1           0       -2.295360   -0.954593    0.000178
     10          1           0       -1.974514    1.510361    0.000007
     11          1           0        0.320943    2.465123   -0.000033
     12          1           0        2.295314    0.954737    0.000067
 ---------------------------------------------------------------------
 Rotational constants (GHZ):           5.6976453           5.6974858           2.8487828
 Leave Link  202 at Tue Nov 19 14:11:30 2019, MaxMem=  7381975040 cpu:               0.5 elap:               0.1
 (Enter /hpc/sw/g16-B.01-avx//g16/l301.exe)
 Standard basis: 6-31+G(d) (6D, 7F)
 Ernie: Thresh=  0.10000D-02 Tol=  0.10000D-05 Strict=F.
 There are   126 symmetry adapted cartesian basis functions of A   symmetry.
 There are   126 symmetry adapted basis functions of A   symmetry.
   126 basis functions,   216 primitive gaussians,   126 cartesian basis functions
    21 alpha electrons       21 beta electrons
       nuclear repulsion energy       203.3149383662 Hartrees.
 IExCor= 1009 DFT=T Ex=PBE Corr=PBE ExCW=0 ScaHFX=  0.000000
 ScaDFX=  1.000000  1.000000  1.000000  1.000000 ScalE2=  1.000000  1.000000
 IRadAn=      5 IRanWt=     -1 IRanGd=            0 ICorTp=0 IEmpDi=  4
 NAtoms=   12 NActive=   12 NUniq=   12 SFac= 1.00D+00 NAtFMM=   60 NAOKFM=F Big=F
 Integral buffers will be    131072 words long.
 Raffenetti 2 integral format.
 Two-electron integral symmetry is turned on.
 Leave Link  301 at Tue Nov 19 14:11:30 2019, MaxMem=  7381975040 cpu:               1.7 elap:               0.1
 (Enter /hpc/sw/g16-B.01-avx//g16/l302.exe)
 NPDir=0 NMtPBC=     1 NCelOv=     1 NCel=       1 NClECP=     1 NCelD=      1
         NCelK=      1 NCelE2=     1 NClLst=     1 CellRange=     0.0.
 One-electron integrals computed using PRISM.
 One-electron integral symmetry used in STVInt
 NBasis=   126 RedAO= T EigKep=  6.36D-06  NBF=   126
 NBsUse=   126 1.00D-06 EigRej= -1.00D+00 NBFU=   126
 Precomputing XC quadrature grid using
 IXCGrd= 4 IRadAn=           5 IRanWt=          -1 IRanGd=           0 AccXCQ= 0.00D+00.
 Generated NRdTot=       0 NPtTot=           0 NUsed=           0 NTot=          32
 NSgBfM=   126   126   126   126   126 MxSgAt=    12 MxSgA2=    12.
 Leave Link  302 at Tue Nov 19 14:11:31 2019, MaxMem=  7381975040 cpu:               3.4 elap:               0.2
 (Enter /hpc/sw/g16-B.01-avx//g16/l303.exe)
 DipDrv:  MaxL=1.
 Leave Link  303 at Tue Nov 19 14:11:31 2019, MaxMem=  7381975040 cpu:               0.7 elap:               0.1
 (Enter /hpc/sw/g16-B.01-avx//g16/l401.exe)
 ExpMin= 4.38D-02 ExpMax= 3.05D+03 ExpMxC= 4.57D+02 IAcc=3 IRadAn=         5 AccDes= 0.00D+00
 Harris functional with IExCor= 1009 and IRadAn=       5 diagonalized for initial guess.
 HarFok:  IExCor= 1009 AccDes= 0.00D+00 IRadAn=         5 IDoV= 1 UseB2=F ITyADJ=14
 ICtDFT=  3500011 ScaDFX=  1.000000  1.000000  1.000000  1.000000
 FoFCou: FMM=F IPFlag=           0 FMFlag=      100000 FMFlg1=           0
         NFxFlg=           0 DoJE=T BraDBF=F KetDBF=T FulRan=T
         wScrn=  0.000000 ICntrl=       500 IOpCl=  0 I1Cent=   200000004 NGrid=           0
         NMat0=    1 NMatS0=      1 NMatT0=    0 NMatD0=    1 NMtDS0=    0 NMtDT0=    0
 Petite list used in FoFCou.
 Harris En= -232.061156294491    
 JPrj=0 DoOrth=F DoCkMO=F.
 Leave Link  401 at Tue Nov 19 14:11:32 2019, MaxMem=  7381975040 cpu:               7.9 elap:               0.4
 (Enter /hpc/sw/g16-B.01-avx//g16/l502.exe)
 Keep J ints in memory in canonical form, NReq=54849649.
 FoFCou: FMM=F IPFlag=           0 FMFlag=           0 FMFlg1=           0
         NFxFlg=           0 DoJE=F BraDBF=F KetDBF=F FulRan=T
         wScrn=  0.000000 ICntrl=       600 IOpCl=  0 I1Cent=           0 NGrid=           0
         NMat0=    1 NMatS0=   8001 NMatT0=    0 NMatD0=    1 NMtDS0=    0 NMtDT0=    0
 Symmetry not used in FoFCou.
 Two-electron integral symmetry not used.
 Closed shell SCF:
 Using DIIS extrapolation, IDIIS=  1040.
 NGot=  7381975040 LenX=  7349926825 LenY=  7349910508
 Requested convergence on RMS density matrix=1.00D-08 within 128 cycles.
 Requested convergence on MAX density matrix=1.00D-06.
 Requested convergence on             energy=1.00D-06.
 No special actions if energy rises.

 Cycle   1  Pass 1  IDiag  1:
 E= -231.813048869287    
 DIIS: error= 2.62D-02 at cycle   1 NSaved=   1.
 NSaved= 1 IEnMin= 1 EnMin= -231.813048869287     IErMin= 1 ErrMin= 2.62D-02
 ErrMax= 2.62D-02  0.00D+00 EMaxC= 1.00D-01 BMatC= 1.09D-01 BMatP= 1.09D-01
 IDIUse=3 WtCom= 7.38D-01 WtEn= 2.62D-01
 Coeff-Com:  0.100D+01
 Coeff-En:   0.100D+01
 Coeff:      0.100D+01
 Gap=     0.187 Goal=   None    Shift=    0.000
 GapD=    0.187 DampG=1.000 DampE=0.500 DampFc=0.5000 IDamp=-1.
 Damping current iteration by 5.00D-01
 RMSDP=1.51D-02 MaxDP=1.97D-01              OVMax= 1.90D-01

 Cycle   2  Pass 1  IDiag  1:
 E= -231.850772898698     Delta-E=       -0.037724029411 Rises=F Damp=T
 DIIS: error= 8.85D-03 at cycle   2 NSaved=   2.
 NSaved= 2 IEnMin= 2 EnMin= -231.850772898698     IErMin= 2 ErrMin= 8.85D-03
 ErrMax= 8.85D-03  0.00D+00 EMaxC= 1.00D-01 BMatC= 1.05D-02 BMatP= 1.09D-01
 IDIUse=3 WtCom= 9.11D-01 WtEn= 8.85D-02
 Coeff-Com:  0.196D+00 0.804D+00
 Coeff-En:   0.337D+00 0.663D+00
 Coeff:      0.209D+00 0.791D+00
 Gap=     0.225 Goal=   None    Shift=    0.000
 RMSDP=7.91D-03 MaxDP=2.07D-01 DE=-3.77D-02 OVMax= 1.20D-01

 Cycle   3  Pass 1  IDiag  1:
 E= -231.943363992446     Delta-E=       -0.092591093748 Rises=F Damp=F
 DIIS: error= 3.77D-03 at cycle   3 NSaved=   3.
 NSaved= 3 IEnMin= 3 EnMin= -231.943363992446     IErMin= 3 ErrMin= 3.77D-03
 ErrMax= 3.77D-03  0.00D+00 EMaxC= 1.00D-01 BMatC= 1.03D-03 BMatP= 1.05D-02
 IDIUse=3 WtCom= 9.62D-01 WtEn= 3.77D-02
 Coeff-Com:  0.265D-01 0.247D+00 0.727D+00
 Coeff-En:   0.000D+00 0.000D+00 0.100D+01
 Coeff:      0.255D-01 0.237D+00 0.737D+00
 Gap=     0.190 Goal=   None    Shift=    0.000
 RMSDP=1.65D-03 MaxDP=3.11D-02 DE=-9.26D-02 OVMax= 7.67D-03

 Cycle   4  Pass 1  IDiag  1:
 E= -231.944327569168     Delta-E=       -0.000963576722 Rises=F Damp=F
 DIIS: error= 5.05D-04 at cycle   4 NSaved=   4.
 NSaved= 4 IEnMin= 4 EnMin= -231.944327569168     IErMin= 4 ErrMin= 5.05D-04
 ErrMax= 5.05D-04  0.00D+00 EMaxC= 1.00D-01 BMatC= 3.45D-05 BMatP= 1.03D-03
 IDIUse=3 WtCom= 9.95D-01 WtEn= 5.05D-03
 Coeff-Com: -0.637D-02 0.299D-01 0.181D+00 0.795D+00
 Coeff-En:   0.000D+00 0.000D+00 0.000D+00 0.100D+01
 Coeff:     -0.634D-02 0.297D-01 0.180D+00 0.796D+00
 Gap=     0.190 Goal=   None    Shift=    0.000
 RMSDP=1.68D-04 MaxDP=2.52D-03 DE=-9.64D-04 OVMax= 1.50D-03

 Cycle   5  Pass 1  IDiag  1:
 E= -231.944365284671     Delta-E=       -0.000037715503 Rises=F Damp=F
 DIIS: error= 2.86D-05 at cycle   5 NSaved=   5.
 NSaved= 5 IEnMin= 5 EnMin= -231.944365284671     IErMin= 5 ErrMin= 2.86D-05
 ErrMax= 2.86D-05  0.00D+00 EMaxC= 1.00D-01 BMatC= 9.67D-08 BMatP= 3.45D-05
 IDIUse=1 WtCom= 1.00D+00 WtEn= 0.00D+00
 Coeff-Com: -0.126D-02 0.308D-02 0.225D-01 0.131D+00 0.844D+00
 Coeff:     -0.126D-02 0.308D-02 0.225D-01 0.131D+00 0.844D+00
 Gap=     0.190 Goal=   None    Shift=    0.000
 RMSDP=2.62D-05 MaxDP=5.10D-04 DE=-3.77D-05 OVMax= 7.59D-05

 Cycle   6  Pass 1  IDiag  1:
 E= -231.944365386076     Delta-E=       -0.000000101405 Rises=F Damp=F
 DIIS: error= 5.45D-06 at cycle   6 NSaved=   6.
 NSaved= 6 IEnMin= 6 EnMin= -231.944365386076     IErMin= 6 ErrMin= 5.45D-06
 ErrMax= 5.45D-06  0.00D+00 EMaxC= 1.00D-01 BMatC= 2.35D-09 BMatP= 9.67D-08
 IDIUse=1 WtCom= 1.00D+00 WtEn= 0.00D+00
 Coeff-Com: -0.196D-03 0.430D-03 0.258D-02 0.180D-01 0.127D+00 0.852D+00
 Coeff:     -0.196D-03 0.430D-03 0.258D-02 0.180D-01 0.127D+00 0.852D+00
 Gap=     0.190 Goal=   None    Shift=    0.000
 RMSDP=1.98D-06 MaxDP=4.17D-05 DE=-1.01D-07 OVMax= 6.50D-05

 Cycle   7  Pass 1  IDiag  1:
 E= -231.944365379584     Delta-E=        0.000000006492 Rises=F Damp=F
 DIIS: error= 1.16D-05 at cycle   7 NSaved=   7.
 NSaved= 7 IEnMin= 6 EnMin= -231.944365386076     IErMin= 6 ErrMin= 5.45D-06
 ErrMax= 1.16D-05  0.00D+00 EMaxC= 1.00D-01 BMatC= 7.52D-09 BMatP= 2.35D-09
 IDIUse=1 WtCom= 1.00D+00 WtEn= 0.00D+00
 Coeff-Com: -0.474D-04 0.786D-04 0.716D-04 0.273D-02 0.244D-01 0.659D+00
 Coeff-Com:  0.313D+00
 Coeff:     -0.474D-04 0.786D-04 0.716D-04 0.273D-02 0.244D-01 0.659D+00
 Coeff:      0.313D+00
 Gap=     0.190 Goal=   None    Shift=    0.000
 RMSDP=9.93D-07 MaxDP=1.59D-05 DE= 6.49D-09 OVMax= 4.51D-05

 Cycle   8  Pass 1  IDiag  1:
 E= -231.944365388786     Delta-E=       -0.000000009202 Rises=F Damp=F
 DIIS: error= 5.14D-07 at cycle   8 NSaved=   8.
 NSaved= 8 IEnMin= 8 EnMin= -231.944365388786     IErMin= 8 ErrMin= 5.14D-07
 ErrMax= 5.14D-07  0.00D+00 EMaxC= 1.00D-01 BMatC= 2.65D-11 BMatP= 2.35D-09
 IDIUse=1 WtCom= 1.00D+00 WtEn= 0.00D+00
 Coeff-Com: -0.211D-04 0.296D-04-0.352D-04 0.900D-03 0.875D-02 0.297D+00
 Coeff-Com:  0.148D+00 0.545D+00
 Coeff:     -0.211D-04 0.296D-04-0.352D-04 0.900D-03 0.875D-02 0.297D+00
 Coeff:      0.148D+00 0.545D+00
 Gap=     0.190 Goal=   None    Shift=    0.000
 RMSDP=7.90D-08 MaxDP=1.38D-06 DE=-9.20D-09 OVMax= 2.49D-06

 Cycle   9  Pass 1  IDiag  1:
 E= -231.944365388806     Delta-E=       -0.000000000021 Rises=F Damp=F
 DIIS: error= 3.24D-07 at cycle   9 NSaved=   9.
 NSaved= 9 IEnMin= 9 EnMin= -231.944365388806     IErMin= 9 ErrMin= 3.24D-07
 ErrMax= 3.24D-07  0.00D+00 EMaxC= 1.00D-01 BMatC= 7.92D-12 BMatP= 2.65D-11
 IDIUse=1 WtCom= 1.00D+00 WtEn= 0.00D+00
 Coeff-Com: -0.428D-05 0.203D-05-0.517D-04-0.508D-04 0.141D-03 0.526D-01
 Coeff-Com:  0.297D-01 0.370D+00 0.548D+00
 Coeff:     -0.428D-05 0.203D-05-0.517D-04-0.508D-04 0.141D-03 0.526D-01
 Coeff:      0.297D-01 0.370D+00 0.548D+00
 Gap=     0.190 Goal=   None    Shift=    0.000
 RMSDP=3.82D-08 MaxDP=5.88D-07 DE=-2.06D-11 OVMax= 9.71D-07

 Cycle  10  Pass 1  IDiag  1:
 E= -231.944365388815     Delta-E=       -0.000000000008 Rises=F Damp=F
 DIIS: error= 6.84D-09 at cycle  10 NSaved=  10.
 NSaved=10 IEnMin=10 EnMin= -231.944365388815     IErMin=10 ErrMin= 6.84D-09
 ErrMax= 6.84D-09  0.00D+00 EMaxC= 1.00D-01 BMatC= 6.83D-15 BMatP= 7.92D-12
 IDIUse=1 WtCom= 1.00D+00 WtEn= 0.00D+00
 Coeff-Com: -0.267D-06 0.556D-07-0.418D-05-0.119D-04-0.496D-04 0.232D-02
 Coeff-Com:  0.131D-02 0.161D-01 0.263D-01 0.954D+00
 Coeff:     -0.267D-06 0.556D-07-0.418D-05-0.119D-04-0.496D-04 0.232D-02
 Coeff:      0.131D-02 0.161D-01 0.263D-01 0.954D+00
 Gap=     0.190 Goal=   None    Shift=    0.000
 RMSDP=2.35D-09 MaxDP=2.82D-08 DE=-8.36D-12 OVMax= 3.24D-08

 SCF Done:  E(RPBE-PBE) =  -231.944365389     A.U. after   10 cycles
            NFock= 10  Conv=0.23D-08     -V/T= 2.0098
 KE= 2.296829524384D+02 PE=-9.433829063052D+02 EE= 2.784406501118D+02
 Leave Link  502 at Tue Nov 19 14:11:35 2019, MaxMem=  7381975040 cpu:              57.4 elap:               2.9
 (Enter /hpc/sw/g16-B.01-avx//g16/l601.exe)
 Copying SCF densities to generalized density rwf, IOpCl= 0 IROHF=0.

 **********************************************************************

            Population analysis using the SCF Density.

 **********************************************************************

 Orbital symmetries:
       Occupied  (A) (A) (A) (A) (A) (A) (A) (A) (A) (A) (A) (A)
                 (A) (A) (A) (A) (A) (A) (A) (A) (A)
       Virtual   (A) (A) (A) (A) (A) (A) (A) (A) (A) (A) (A) (A)
                 (A) (A) (A) (A) (A) (A) (A) (A) (A) (A) (A) (A)
                 (A) (A) (A) (A) (A) (A) (A) (A) (A) (A) (A) (A)
                 (A) (A) (A) (A) (A) (A) (A) (A) (A) (A) (A) (A)
                 (A) (A) (A) (A) (A) (A) (A) (A) (A) (A) (A) (A)
                 (A) (A) (A) (A) (A) (A) (A) (A) (A) (A) (A) (A)
                 (A) (A) (A) (A) (A) (A) (A) (A) (A) (A) (A) (A)
                 (A) (A) (A) (A) (A) (A) (A) (A) (A) (A) (A) (A)
                 (A) (A) (A) (A) (A) (A) (A) (A) (A)
 The electronic state is 1-A.
 Alpha  occ. eigenvalues --   -9.90871  -9.90852  -9.90852  -9.90812  -9.90812
 Alpha  occ. eigenvalues --   -9.90794  -0.78009  -0.67768  -0.67768  -0.54446
 Alpha  occ. eigenvalues --   -0.54446  -0.47352  -0.41167  -0.39781  -0.37566
 Alpha  occ. eigenvalues --   -0.37566  -0.33052  -0.30176  -0.30174  -0.22991
 Alpha  occ. eigenvalues --   -0.22991
 Alpha virt. eigenvalues --   -0.03992  -0.03991  -0.00436   0.01576   0.01576
 Alpha virt. eigenvalues --    0.03689   0.03689   0.05502   0.06441   0.07076
 Alpha virt. eigenvalues --    0.08208   0.08208   0.08963   0.09847   0.13092
 Alpha virt. eigenvalues --    0.13092   0.13598   0.13598   0.14273   0.14274
 Alpha virt. eigenvalues --    0.17202   0.18256   0.18256   0.18507   0.20042
 Alpha virt. eigenvalues --    0.20042   0.21930   0.22339   0.22339   0.25095
 Alpha virt. eigenvalues --    0.25096   0.26298   0.30491   0.31533   0.31534
 Alpha virt. eigenvalues --    0.31672   0.31672   0.52244   0.54010   0.55970
 Alpha virt. eigenvalues --    0.58541   0.61869   0.67716   0.67716   0.67993
 Alpha virt. eigenvalues --    0.67993   0.70535   0.70536   0.72589   0.72590
 Alpha virt. eigenvalues --    0.76315   0.78778   0.84869   0.88291   0.88291
 Alpha virt. eigenvalues --    0.91748   0.91748   0.93105   0.98545   1.02999
 Alpha virt. eigenvalues --    1.02999   1.09290   1.09293   1.12874   1.12875
 Alpha virt. eigenvalues --    1.18659   1.26413   1.32342   1.38492   1.38493
 Alpha virt. eigenvalues --    1.41047   1.41048   1.43605   1.43605   1.67700
 Alpha virt. eigenvalues --    1.75033   1.81064   1.85368   1.90973   1.90974
 Alpha virt. eigenvalues --    2.03551   2.03552   2.07575   2.07576   2.09376
 Alpha virt. eigenvalues --    2.09378   2.22392   2.22394   2.24636   2.49476
 Alpha virt. eigenvalues --    2.49477   2.56520   2.62152   2.62155   2.65528
 Alpha virt. eigenvalues --    2.65530   2.75083   2.94010   3.31566   4.14196
 Alpha virt. eigenvalues --    4.15507   4.15507   4.29092   4.29092   4.59127
          Condensed to atoms (all electrons):
               1          2          3          4          5          6
     1  C    5.010004   0.528434  -0.071901  -0.021641  -0.071936   0.528567
     2  C    0.528434   5.010027   0.528578  -0.071939  -0.021642  -0.071924
     3  C   -0.071901   0.528578   5.009994   0.528423  -0.071934  -0.021638
     4  C   -0.021641  -0.071939   0.528423   5.009998   0.528580  -0.071899
     5  C   -0.071936  -0.021642  -0.071934   0.528580   5.010037   0.528435
     6  C    0.528567  -0.071924  -0.021638  -0.071899   0.528435   5.009980
     7  H    0.256296   0.009599   0.009247  -0.006788   0.009252   0.009628
     8  H    0.009602   0.256285   0.009634   0.009252  -0.006788   0.009247
     9  H    0.009247   0.009634   0.256297   0.009593   0.009253  -0.006788
    10  H   -0.006788   0.009252   0.009593   0.256296   0.009633   0.009248
    11  H    0.009251  -0.006789   0.009250   0.009634   0.256290   0.009596
    12  H    0.009630   0.009253  -0.006788   0.009245   0.009602   0.256294
               7          8          9         10         11         12
     1  C    0.256296   0.009602   0.009247  -0.006788   0.009251   0.009630
     2  C    0.009599   0.256285   0.009634   0.009252  -0.006789   0.009253
     3  C    0.009247   0.009634   0.256297   0.009593   0.009250  -0.006788
     4  C   -0.006788   0.009252   0.009593   0.256296   0.009634   0.009245
     5  C    0.009252  -0.006788   0.009253   0.009633   0.256290   0.009602
     6  C    0.009628   0.009247  -0.006788   0.009248   0.009596   0.256294
     7  H    0.536043  -0.005865  -0.000164   0.000016  -0.000164  -0.005863
     8  H   -0.005865   0.536046  -0.005863  -0.000164   0.000017  -0.000164
     9  H   -0.000164  -0.005863   0.536043  -0.005865  -0.000164   0.000016
    10  H    0.000016  -0.000164  -0.005865   0.536045  -0.005863  -0.000164
    11  H   -0.000164   0.000017  -0.000164  -0.005863   0.536047  -0.005865
    12  H   -0.005863  -0.000164   0.000016  -0.000164  -0.005865   0.536040
 Mulliken charges:
               1
     1  C   -0.188765
     2  C   -0.188769
     3  C   -0.188755
     4  C   -0.188752
     5  C   -0.188783
     6  C   -0.188746
     7  H    0.188762
     8  H    0.188760
     9  H    0.188762
    10  H    0.188762
    11  H    0.188760
    12  H    0.188763
 Sum of Mulliken charges =  -0.00000
 Mulliken charges with hydrogens summed into heavy atoms:
               1
     1  C   -0.000003
     2  C   -0.000008
     3  C    0.000007
     4  C    0.000010
     5  C   -0.000023
     6  C    0.000017
 Electronic spatial extent (au):  <R**2>=            460.0360
 Charge=             -0.0000 electrons
 Dipole moment (field-independent basis, Debye):
    X=             -0.0000    Y=              0.0000    Z=              0.0002  Tot=              0.0002
 Quadrupole moment (field-independent basis, Debye-Ang):
   XX=            -32.0649   YY=            -32.0660   ZZ=            -40.2315
   XY=             -0.0000   XZ=             -0.0001   YZ=             -0.0002
 Traceless Quadrupole moment (field-independent basis, Debye-Ang):
   XX=              2.7225   YY=              2.7215   ZZ=             -5.4440
   XY=             -0.0000   XZ=             -0.0001   YZ=             -0.0002
 Octapole moment (field-independent basis, Debye-Ang**2):
  XXX=             -0.0028  YYY=             -0.0011  ZZZ=              0.0003  XYY=              0.0026
  XXY=              0.0011  XXZ=              0.0013  XZZ=             -0.0001  YZZ=              0.0001
  YYZ=              0.0004  XYZ=              0.0001
 Hexadecapole moment (field-independent basis, Debye-Ang**3):
 XXXX=           -279.5027 YYYY=           -279.5044 ZZZZ=            -50.9819 XXXY=             -0.0005
 XXXZ=             -0.0012 YYYX=              0.0005 YYYZ=             -0.0002 ZZZX=             -0.0002
 ZZZY=             -0.0002 XXYY=            -93.1685 XXZZ=            -65.8669 YYZZ=            -65.8657
 XXYZ=             -0.0011 YYXZ=              0.0000 ZZXY=             -0.0001
 N-N= 2.033149383662D+02 E-N=-9.433829049895D+02  KE= 2.296829524384D+02
 There are a total of      272232 grid points.
 ElSum from          density=       41.9999988316
 ElSum from atomic densities=       41.9999990980

 Hirshfeld populations at iteration   1 (CX, CA, CB, DipXYZ):
               1          2          3          4          5          6
     1  C    0.000001   3.022853   3.022853   0.043997  -0.033721   0.000002
     2  C    0.000001   3.022854   3.022854  -0.007105  -0.054966  -0.000024
     3  C    0.000001   3.022853   3.022853  -0.051206  -0.021248   0.000025
     4  C    0.000001   3.022853   3.022853  -0.044056   0.033648  -0.000002
     5  C    0.000001   3.022854   3.022854   0.007198   0.054954  -0.000019
     6  C    0.000001   3.022853   3.022853   0.051168   0.021337   0.000021
     7  H    0.000004   0.477146   0.477146   0.114986  -0.087984   0.000012
     8  H    0.000004   0.477148   0.477148  -0.018669  -0.143574   0.000009
     9  H    0.000004   0.477146   0.477146  -0.133696  -0.055574   0.000016
    10  H    0.000004   0.477146   0.477146  -0.115016   0.087945   0.000003
    11  H    0.000004   0.477148   0.477148   0.018713   0.143569   0.000009
    12  H    0.000004   0.477146   0.477146   0.133677   0.055618  -0.000004
       Tot   0.000026  20.999999  20.999999  -0.000009   0.000004   0.000048

 Dip from Atomic Chgs              0.000003  -0.000002   0.000023
         Total Dipole             -0.000006   0.000002   0.000071

 Hirshfeld charges, spin densities, dipoles, and CM5 charges using IRadAn=      5:
              Q-H        S-H        Dx         Dy         Dz        Q-CM5   
     1  C   -0.045706   0.000000   0.043997  -0.033721   0.000002  -0.100482
     2  C   -0.045707   0.000000  -0.007105  -0.054966  -0.000024  -0.100482
     3  C   -0.045706   0.000000  -0.051206  -0.021248   0.000025  -0.100484
     4  C   -0.045706   0.000000  -0.044056   0.033648  -0.000002  -0.100484
     5  C   -0.045708   0.000000   0.007198   0.054954  -0.000019  -0.100483
     6  C   -0.045706   0.000000   0.051168   0.021337   0.000021  -0.100482
     7  H    0.045707   0.000000   0.114986  -0.087984   0.000012   0.100484
     8  H    0.045705   0.000000  -0.018669  -0.143574   0.000009   0.100480
     9  H    0.045708   0.000000  -0.133696  -0.055574   0.000016   0.100485
    10  H    0.045708   0.000000  -0.115016   0.087945   0.000003   0.100485
    11  H    0.045704   0.000000   0.018713   0.143569   0.000009   0.100481
    12  H    0.045709   0.000000   0.133677   0.055618  -0.000004   0.100485
       Tot   0.000001   0.000000  -0.000009   0.000004   0.000048   0.000001
 Hirshfeld charges with hydrogens summed into heavy atoms:
              Q-H       Q-CM5   
     1  C    0.000001   0.000001
     2  C   -0.000003  -0.000002
     3  C    0.000002   0.000001
     4  C    0.000001   0.000001
     5  C   -0.000003  -0.000003
     6  C    0.000003   0.000002
 
 EQQ=  0.00000000000     EQD=  0.00000000000     EDD= 0.665439090625E-02
 EQQ+QD+DD= 0.665439090625E-02
 
 No NMR shielding tensors so no spin-rotation constants.
 Leave Link  601 at Tue Nov 19 14:11:35 2019, MaxMem=  7381975040 cpu:               5.2 elap:               0.3
 (Enter /hpc/sw/g16-B.01-avx//g16/l607.exe)
 ******************************Gaussian NBO Version 3.1******************************
             N A T U R A L   A T O M I C   O R B I T A L   A N D
          N A T U R A L   B O N D   O R B I T A L   A N A L Y S I S
 ******************************Gaussian NBO Version 3.1******************************

       /RESON  / : Allow strongly delocalized NBO set
       /NLMO   / : Form Natural Localized Molecular Orbitals
       /BNDIDX / : Print bond indices based on the NAO density matrix

 Analyzing the SCF density

 Job title: benzene                                                         

 Storage needed:     48252 in NPA,     64045 in NBO,     48402 in NLMO (7381974224 available)
 GSVD:  LWork=        8196 too small for GESVD, short by        6624 words or        6624 for optimal perf.


 NATURAL POPULATIONS:  Natural atomic orbital occupancies 
                                                          
   NAO  Atom  No  lang   Type(AO)    Occupancy      Energy
 ----------------------------------------------------------
     1    C    1  S      Cor( 1S)     1.99911      -9.76161
     2    C    1  S      Val( 2S)     0.97199      -0.17846
     3    C    1  S      Ryd( 4S)     0.00078       0.97335
     4    C    1  S      Ryd( 3S)     0.00015       0.66269
     5    C    1  S      Ryd( 5S)     0.00003       3.88762
     6    C    1  px     Val( 2p)     1.15270      -0.04697
     7    C    1  px     Ryd( 4p)     0.00450       0.90236
     8    C    1  px     Ryd( 3p)     0.00029       0.32443
     9    C    1  py     Val( 2p)     1.11457      -0.04213
    10    C    1  py     Ryd( 4p)     0.00437       0.77664
    11    C    1  py     Ryd( 3p)     0.00023       0.33102
    12    C    1  pz     Val( 2p)     0.99774      -0.11109
    13    C    1  pz     Ryd( 4p)     0.00092       0.52375
    14    C    1  pz     Ryd( 3p)     0.00060       0.27247
    15    C    1  dxy    Ryd( 3d)     0.00075       2.29369
    16    C    1  dxz    Ryd( 3d)     0.00034       1.77592
    17    C    1  dyz    Ryd( 3d)     0.00039       1.81482
    18    C    1  dx2y2  Ryd( 3d)     0.00050       2.32201
    19    C    1  dz2    Ryd( 3d)     0.00036       2.19700
 
    20    C    2  S      Cor( 1S)     1.99911      -9.76161
    21    C    2  S      Val( 2S)     0.97198      -0.17845
    22    C    2  S      Ryd( 4S)     0.00078       0.97336
    23    C    2  S      Ryd( 3S)     0.00015       0.66265
    24    C    2  S      Ryd( 5S)     0.00003       3.88766
    25    C    2  px     Val( 2p)     1.06305      -0.03561
    26    C    2  px     Ryd( 4p)     0.00419       0.60712
    27    C    2  px     Ryd( 3p)     0.00015       0.33987
    28    C    2  py     Val( 2p)     1.20423      -0.05350
    29    C    2  py     Ryd( 4p)     0.00467       1.07188
    30    C    2  py     Ryd( 3p)     0.00037       0.31558
    31    C    2  pz     Val( 2p)     0.99774      -0.11109
    32    C    2  pz     Ryd( 4p)     0.00092       0.52375
    33    C    2  pz     Ryd( 3p)     0.00060       0.27247
    34    C    2  dxy    Ryd( 3d)     0.00050       2.32211
    35    C    2  dxz    Ryd( 3d)     0.00046       1.86709
    36    C    2  dyz    Ryd( 3d)     0.00028       1.72366
    37    C    2  dx2y2  Ryd( 3d)     0.00075       2.29360
    38    C    2  dz2    Ryd( 3d)     0.00036       2.19701
 
    39    C    3  S      Cor( 1S)     1.99911      -9.76161
    40    C    3  S      Val( 2S)     0.97198      -0.17845
    41    C    3  S      Ryd( 4S)     0.00078       0.97336
    42    C    3  S      Ryd( 3S)     0.00015       0.66268
    43    C    3  S      Ryd( 5S)     0.00003       3.88761
    44    C    3  px     Val( 2p)     1.18515      -0.05107
    45    C    3  px     Ryd( 4p)     0.00461       1.00903
    46    C    3  px     Ryd( 3p)     0.00034       0.31888
    47    C    3  py     Val( 2p)     1.08213      -0.03803
    48    C    3  py     Ryd( 4p)     0.00426       0.66996
    49    C    3  py     Ryd( 3p)     0.00018       0.33657
    50    C    3  pz     Val( 2p)     0.99774      -0.11109
    51    C    3  pz     Ryd( 4p)     0.00092       0.52375
    52    C    3  pz     Ryd( 3p)     0.00060       0.27247
    53    C    3  dxy    Ryd( 3d)     0.00062       2.30774
    54    C    3  dxz    Ryd( 3d)     0.00030       1.74309
    55    C    3  dyz    Ryd( 3d)     0.00044       1.84765
    56    C    3  dx2y2  Ryd( 3d)     0.00062       2.30796
    57    C    3  dz2    Ryd( 3d)     0.00036       2.19701
 
    58    C    4  S      Cor( 1S)     1.99911      -9.76160
    59    C    4  S      Val( 2S)     0.97198      -0.17845
    60    C    4  S      Ryd( 4S)     0.00078       0.97337
    61    C    4  S      Ryd( 3S)     0.00015       0.66267
    62    C    4  S      Ryd( 5S)     0.00003       3.88762
    63    C    4  px     Val( 2p)     1.15279      -0.04697
    64    C    4  px     Ryd( 4p)     0.00450       0.90249
    65    C    4  px     Ryd( 3p)     0.00029       0.32445
    66    C    4  py     Val( 2p)     1.11449      -0.04213
    67    C    4  py     Ryd( 4p)     0.00437       0.77652
    68    C    4  py     Ryd( 3p)     0.00023       0.33099
    69    C    4  pz     Val( 2p)     0.99774      -0.11109
    70    C    4  pz     Ryd( 4p)     0.00092       0.52375
    71    C    4  pz     Ryd( 3p)     0.00060       0.27247
    72    C    4  dxy    Ryd( 3d)     0.00075       2.29369
    73    C    4  dxz    Ryd( 3d)     0.00034       1.77600
    74    C    4  dyz    Ryd( 3d)     0.00039       1.81474
    75    C    4  dx2y2  Ryd( 3d)     0.00050       2.32203
    76    C    4  dz2    Ryd( 3d)     0.00036       2.19701
 
    77    C    5  S      Cor( 1S)     1.99911      -9.76160
    78    C    5  S      Val( 2S)     0.97198      -0.17845
    79    C    5  S      Ryd( 4S)     0.00078       0.97338
    80    C    5  S      Ryd( 3S)     0.00015       0.66265
    81    C    5  S      Ryd( 5S)     0.00003       3.88764
    82    C    5  px     Val( 2p)     1.06308      -0.03561
    83    C    5  px     Ryd( 4p)     0.00419       0.60715
    84    C    5  px     Ryd( 3p)     0.00015       0.33988
    85    C    5  py     Val( 2p)     1.20421      -0.05350
    86    C    5  py     Ryd( 4p)     0.00467       1.07186
    87    C    5  py     Ryd( 3p)     0.00037       0.31558
    88    C    5  pz     Val( 2p)     0.99774      -0.11109
    89    C    5  pz     Ryd( 4p)     0.00092       0.52375
    90    C    5  pz     Ryd( 3p)     0.00060       0.27247
    91    C    5  dxy    Ryd( 3d)     0.00050       2.32211
    92    C    5  dxz    Ryd( 3d)     0.00046       1.86712
    93    C    5  dyz    Ryd( 3d)     0.00028       1.72363
    94    C    5  dx2y2  Ryd( 3d)     0.00075       2.29361
    95    C    5  dz2    Ryd( 3d)     0.00036       2.19701
 
    96    C    6  S      Cor( 1S)     1.99911      -9.76161
    97    C    6  S      Val( 2S)     0.97199      -0.17846
    98    C    6  S      Ryd( 4S)     0.00078       0.97335
    99    C    6  S      Ryd( 3S)     0.00015       0.66268
   100    C    6  S      Ryd( 5S)     0.00003       3.88763
   101    C    6  px     Val( 2p)     1.18509      -0.05108
   102    C    6  px     Ryd( 4p)     0.00461       1.00895
   103    C    6  px     Ryd( 3p)     0.00034       0.31886
   104    C    6  py     Val( 2p)     1.08219      -0.03803
   105    C    6  py     Ryd( 4p)     0.00426       0.67005
   106    C    6  py     Ryd( 3p)     0.00018       0.33658
   107    C    6  pz     Val( 2p)     0.99774      -0.11109
   108    C    6  pz     Ryd( 4p)     0.00092       0.52375
   109    C    6  pz     Ryd( 3p)     0.00060       0.27247
   110    C    6  dxy    Ryd( 3d)     0.00062       2.30775
   111    C    6  dxz    Ryd( 3d)     0.00030       1.74303
   112    C    6  dyz    Ryd( 3d)     0.00044       1.84771
   113    C    6  dx2y2  Ryd( 3d)     0.00062       2.30795
   114    C    6  dz2    Ryd( 3d)     0.00036       2.19701
 
   115    H    7  S      Val( 1S)     0.74876       0.07653
   116    H    7  S      Ryd( 2S)     0.00092       0.54248
 
   117    H    8  S      Val( 1S)     0.74876       0.07653
   118    H    8  S      Ryd( 2S)     0.00092       0.54249
 
   119    H    9  S      Val( 1S)     0.74876       0.07654
   120    H    9  S      Ryd( 2S)     0.00092       0.54247
 
   121    H   10  S      Val( 1S)     0.74876       0.07654
   122    H   10  S      Ryd( 2S)     0.00092       0.54248
 
   123    H   11  S      Val( 1S)     0.74876       0.07654
   124    H   11  S      Ryd( 2S)     0.00092       0.54249
 
   125    H   12  S      Val( 1S)     0.74876       0.07653
   126    H   12  S      Ryd( 2S)     0.00092       0.54248

 WARNING:  Population inversion found on atom  C    1
           Population inversion found on atom  C    2
           Population inversion found on atom  C    3
           Population inversion found on atom  C    4
           Population inversion found on atom  C    5
           Population inversion found on atom  C    6


 Summary of Natural Population Analysis:                  
                                                          
                                       Natural Population 
                Natural  -----------------------------------------------
    Atom  No    Charge         Core      Valence    Rydberg      Total
 -----------------------------------------------------------------------
      C    1   -0.25032      1.99911     4.23700    0.01421     6.25032
      C    2   -0.25033      1.99911     4.23701    0.01421     6.25033
      C    3   -0.25032      1.99911     4.23700    0.01421     6.25032
      C    4   -0.25032      1.99911     4.23700    0.01421     6.25032
      C    5   -0.25033      1.99911     4.23701    0.01421     6.25033
      C    6   -0.25032      1.99911     4.23700    0.01421     6.25032
      H    7    0.25032      0.00000     0.74876    0.00092     0.74968
      H    8    0.25032      0.00000     0.74876    0.00092     0.74968
      H    9    0.25032      0.00000     0.74876    0.00092     0.74968
      H   10    0.25032      0.00000     0.74876    0.00092     0.74968
      H   11    0.25032      0.00000     0.74876    0.00092     0.74968
      H   12    0.25032      0.00000     0.74876    0.00092     0.74968
 =======================================================================
   * Total *    0.00000     11.99467    29.91459    0.09075    42.00000

                                 Natural Population      
 --------------------------------------------------------
   Core                      11.99467 ( 99.9555% of  12)
   Valence                   29.91459 ( 99.7153% of  30)
   Natural Minimal Basis     41.90925 ( 99.7839% of  42)
   Natural Rydberg Basis      0.09075 (  0.2161% of  42)
 --------------------------------------------------------

    Atom  No          Natural Electron Configuration
 ----------------------------------------------------------------------------
      C    1      [core]2S( 0.97)2p( 3.27)4p( 0.01)
      C    2      [core]2S( 0.97)2p( 3.27)4p( 0.01)
      C    3      [core]2S( 0.97)2p( 3.27)4p( 0.01)
      C    4      [core]2S( 0.97)2p( 3.27)4p( 0.01)
      C    5      [core]2S( 0.97)2p( 3.27)4p( 0.01)
      C    6      [core]2S( 0.97)2p( 3.27)4p( 0.01)
      H    7            1S( 0.75)
      H    8            1S( 0.75)
      H    9            1S( 0.75)
      H   10            1S( 0.75)
      H   11            1S( 0.75)
      H   12            1S( 0.75)


 Wiberg bond index matrix in the NAO basis:                                    

     Atom    1       2       3       4       5       6       7       8       9
     ---- ------  ------  ------  ------  ------  ------  ------  ------  ------
   1.  C  0.0000  1.4368  0.0111  0.1144  0.0111  1.4373  0.9064  0.0033  0.0099
   2.  C  1.4368  0.0000  1.4373  0.0111  0.1144  0.0111  0.0033  0.9064  0.0033
   3.  C  0.0111  1.4373  0.0000  1.4368  0.0111  0.1144  0.0099  0.0033  0.9064
   4.  C  0.1144  0.0111  1.4368  0.0000  1.4373  0.0111  0.0004  0.0099  0.0033
   5.  C  0.0111  0.1144  0.0111  1.4373  0.0000  1.4368  0.0099  0.0004  0.0099
   6.  C  1.4373  0.0111  0.1144  0.0111  1.4368  0.0000  0.0033  0.0099  0.0004
   7.  H  0.9064  0.0033  0.0099  0.0004  0.0099  0.0033  0.0000  0.0021  0.0004
   8.  H  0.0033  0.9064  0.0033  0.0099  0.0004  0.0099  0.0021  0.0000  0.0021
   9.  H  0.0099  0.0033  0.9064  0.0033  0.0099  0.0004  0.0004  0.0021  0.0000
  10.  H  0.0004  0.0099  0.0033  0.9064  0.0033  0.0099  0.0006  0.0004  0.0021
  11.  H  0.0099  0.0004  0.0099  0.0033  0.9064  0.0033  0.0004  0.0006  0.0004
  12.  H  0.0033  0.0099  0.0004  0.0099  0.0033  0.9064  0.0021  0.0004  0.0006

     Atom   10      11      12
     ---- ------  ------  ------
   1.  C  0.0004  0.0099  0.0033
   2.  C  0.0099  0.0004  0.0099
   3.  C  0.0033  0.0099  0.0004
   4.  C  0.9064  0.0033  0.0099
   5.  C  0.0033  0.9064  0.0033
   6.  C  0.0099  0.0033  0.9064
   7.  H  0.0006  0.0004  0.0021
   8.  H  0.0004  0.0006  0.0004
   9.  H  0.0021  0.0004  0.0006
  10.  H  0.0000  0.0021  0.0004
  11.  H  0.0021  0.0000  0.0021
  12.  H  0.0004  0.0021  0.0000


 Wiberg bond index, Totals by atom:                                            

     Atom    1
     ---- ------
   1.  C  3.9438
   2.  C  3.9438
   3.  C  3.9438
   4.  C  3.9438
   5.  C  3.9438
   6.  C  3.9438
   7.  H  0.9387
   8.  H  0.9387
   9.  H  0.9387
  10.  H  0.9387
  11.  H  0.9387
  12.  H  0.9387


 Atom-atom overlap-weighted NAO bond order:                                    

     Atom    1       2       3       4       5       6       7       8       9
     ---- ------  ------  ------  ------  ------  ------  ------  ------  ------
   1.  C  0.0000  1.1610  0.0203 -0.0402  0.0203  1.1613  0.7595  0.0104  0.0080
   2.  C  1.1610  0.0000  1.1614  0.0203 -0.0402  0.0203  0.0104  0.7595  0.0104
   3.  C  0.0203  1.1614  0.0000  1.1610  0.0203 -0.0402  0.0080  0.0104  0.7595
   4.  C -0.0402  0.0203  1.1610  0.0000  1.1614  0.0203  0.0002  0.0080  0.0104
   5.  C  0.0203 -0.0402  0.0203  1.1614  0.0000  1.1610  0.0080  0.0002  0.0080
   6.  C  1.1613  0.0203 -0.0402  0.0203  1.1610  0.0000  0.0104  0.0080  0.0002
   7.  H  0.7595  0.0104  0.0080  0.0002  0.0080  0.0104  0.0000 -0.0051 -0.0001
   8.  H  0.0104  0.7595  0.0104  0.0080  0.0002  0.0080 -0.0051  0.0000 -0.0051
   9.  H  0.0080  0.0104  0.7595  0.0104  0.0080  0.0002 -0.0001 -0.0051  0.0000
  10.  H  0.0002  0.0080  0.0104  0.7595  0.0104  0.0080  0.0000 -0.0001 -0.0051
  11.  H  0.0080  0.0002  0.0080  0.0104  0.7595  0.0104 -0.0001  0.0000 -0.0001
  12.  H  0.0104  0.0080  0.0002  0.0080  0.0104  0.7595 -0.0051 -0.0001  0.0000

     Atom   10      11      12
     ---- ------  ------  ------
   1.  C  0.0002  0.0080  0.0104
   2.  C  0.0080  0.0002  0.0080
   3.  C  0.0104  0.0080  0.0002
   4.  C  0.7595  0.0104  0.0080
   5.  C  0.0104  0.7595  0.0104
   6.  C  0.0080  0.0104  0.7595
   7.  H  0.0000 -0.0001 -0.0051
   8.  H -0.0001  0.0000 -0.0001
   9.  H -0.0051 -0.0001  0.0000
  10.  H  0.0000 -0.0051 -0.0001
  11.  H -0.0051  0.0000 -0.0051
  12.  H -0.0001 -0.0051  0.0000


 Atom-atom overlap-weighted NAO bond order, Totals by atom:                    

     Atom    1
     ---- ------
   1.  C  3.1191
   2.  C  3.1192
   3.  C  3.1191
   4.  C  3.1192
   5.  C  3.1192
   6.  C  3.1191
   7.  H  0.7861
   8.  H  0.7861
   9.  H  0.7861
  10.  H  0.7861
  11.  H  0.7861
  12.  H  0.7861


 MO bond order:                                                                

     Atom    1       2       3       4       5       6       7       8       9
     ---- ------  ------  ------  ------  ------  ------  ------  ------  ------
   1.  C  0.0000  0.1065 -0.0960 -0.3885  0.2405  0.3954  0.6469 -0.0401 -0.0255
   2.  C  0.1065  0.0000  1.0169 -0.0877 -0.3502  0.0751  0.1186 -0.4035  0.0546
   3.  C -0.0960  1.0169  0.0000  0.3164 -0.0122 -0.3360  0.0770  0.0518 -0.5185
   4.  C -0.3885 -0.0877  0.3164  0.0000  0.1415  0.2387  0.0286 -0.0086 -0.0124
   5.  C  0.2405 -0.3502 -0.0122  0.1415  0.0000  1.1149  0.0556  0.0090 -0.0371
   6.  C  0.3954  0.0751 -0.3360  0.2387  1.1149  0.0000 -0.0707 -0.0362  0.0082
   7.  H  0.6469  0.1186  0.0770  0.0286  0.0556 -0.0707  0.0000 -0.0353 -0.0115
   8.  H -0.0401 -0.4035  0.0518 -0.0086  0.0090 -0.0362 -0.0353  0.0000 -0.0353
   9.  H -0.0255  0.0546 -0.5185 -0.0124 -0.0371  0.0082 -0.0115 -0.0353  0.0000
  10.  H  0.0230  0.0606  0.0982  0.3470 -0.0606  0.0213  0.0112 -0.0115 -0.0352
  11.  H  0.1247  0.0426  0.1346  0.0980  1.3974 -0.0243 -0.0115  0.0112 -0.0115
  12.  H  0.0908  0.1519  0.0473  0.1401  0.0238  1.5822 -0.0353 -0.0115  0.0112

     Atom   10      11      12
     ---- ------  ------  ------
   1.  C  0.0230  0.1247  0.0908
   2.  C  0.0606  0.0426  0.1519
   3.  C  0.0982  0.1346  0.0473
   4.  C  0.3470  0.0980  0.1401
   5.  C -0.0606  1.3974  0.0238
   6.  C  0.0213 -0.0243  1.5822
   7.  H  0.0112 -0.0115 -0.0353
   8.  H -0.0115  0.0112 -0.0115
   9.  H -0.0352 -0.0115  0.0112
  10.  H  0.0000 -0.0353 -0.0115
  11.  H -0.0353  0.0000 -0.0352
  12.  H -0.0115 -0.0352  0.0000


 MO atomic valencies:                                                          

     Atom    1
     ---- ------
   1.  C  1.0776
   2.  C  0.7853
   3.  C  0.7794
   4.  C  0.8130
   5.  C  2.5227
   6.  C  2.9687
   7.  H  0.7736
   8.  H -0.5099
   9.  H -0.6131
  10.  H  0.4071
  11.  H  1.6906
  12.  H  1.9537


 NATURAL BOND ORBITAL ANALYSIS:

                       Occupancies       Lewis Structure    Low   High
           Occ.    -------------------  -----------------   occ   occ
  Cycle   Thresh.   Lewis   Non-Lewis     CR  BD  3C  LP    (L)   (NL)   Dev
 =============================================================================
   1(1)    1.90    38.76074   3.23926      6  12   0   3     3      3    0.44
   2(2)    1.90    38.76074   3.23926      6  12   0   3     3      3    0.44
   3(1)    1.80    38.76074   3.23926      6  12   0   3     3      3    0.44
   4(2)    1.80    38.76074   3.23926      6  12   0   3     3      3    0.44
   5(1)    1.70    38.76074   3.23926      6  12   0   3     3      3    0.44
   6(2)    1.70    38.76074   3.23926      6  12   0   3     3      3    0.44
   7(1)    1.60    40.75921   1.24079      6  15   0   0     0      3    0.44
   8(2)    1.60    40.75818   1.24182      6  15   0   0     0      3    0.44
   9(3)    1.60    40.09271   1.90729      6  14   0   1     1      3    0.44
  10(4)    1.60    40.75921   1.24079      6  15   0   0     0      3    0.44
  11(1)    1.50    40.75921   1.24079      6  15   0   0     0      3    0.44
  12(2)    1.50    40.75818   1.24182      6  15   0   0     0      3    0.44
  13(3)    1.50    40.09271   1.90729      6  14   0   1     1      3    0.44
  14(4)    1.50    40.75921   1.24079      6  15   0   0     0      3    0.44
  15(1)    1.60    40.75921   1.24079      6  15   0   0     0      3    0.44
 -----------------------------------------------------------------------------

 Structure accepted: RESONANCE keyword permits strongly delocalized structure

 --------------------------------------------------------
   Core                     11.99469 ( 99.956% of  12)
   Valence Lewis            28.76452 ( 95.882% of  30)
  ==================       ============================
   Total Lewis              40.75921 ( 97.046% of  42)
  -----------------------------------------------------
   Valence non-Lewis         1.17977 (  2.809% of  42)
   Rydberg non-Lewis         0.06102 (  0.145% of  42)
  ==================       ============================
   Total non-Lewis           1.24079 (  2.954% of  42)
 --------------------------------------------------------


       (Occupancy)   Bond orbital/ Coefficients/ Hybrids
 ---------------------------------------------------------------------------------
     1. (1.98028) BD ( 1) C   1 - C   2  
                ( 50.00%)   0.7071* C   1 s( 35.12%)p 1.85( 64.86%)d 0.00(  0.03%)
                                           -0.0000  0.5925 -0.0086  0.0018  0.0009
                                           -0.7350  0.0045  0.0119 -0.3271  0.0348
                                           -0.0047 -0.0001  0.0000  0.0000  0.0076
                                            0.0000  0.0000  0.0107 -0.0102
                ( 50.00%)   0.7071* C   2 s( 35.12%)p 1.85( 64.86%)d 0.00(  0.03%)
                                           -0.0000  0.5925 -0.0086  0.0018  0.0009
                                            0.7501 -0.0278 -0.0050  0.2906  0.0213
                                           -0.0118  0.0000 -0.0000 -0.0000  0.0107
                                            0.0000  0.0000  0.0076 -0.0102
     2. (1.98029) BD ( 1) C   1 - C   6  
                ( 50.00%)   0.7071* C   1 s( 35.12%)p 1.85( 64.85%)d 0.00(  0.03%)
                                           -0.0000  0.5926 -0.0086  0.0018  0.0009
                                            0.1234 -0.0324  0.0077  0.7949 -0.0135
                                           -0.0102  0.0001 -0.0000  0.0000  0.0012
                                            0.0000  0.0000 -0.0131 -0.0102
                ( 50.00%)   0.7071* C   6 s( 35.12%)p 1.85( 64.85%)d 0.00(  0.03%)
                                           -0.0000  0.5926 -0.0086  0.0018  0.0009
                                           -0.0842 -0.0279  0.0100 -0.8000  0.0213
                                            0.0079 -0.0000  0.0000  0.0000  0.0054
                                            0.0000  0.0000 -0.0120 -0.0102
     3. (1.66495) BD ( 2) C   1 - C   6  
                ( 50.00%)   0.7071* C   1 s(  0.00%)p 1.00( 99.97%)d 0.00(  0.03%)
                                           -0.0000 -0.0000  0.0000 -0.0000  0.0000
                                           -0.0001 -0.0000 -0.0000 -0.0000  0.0000
                                           -0.0000  0.9995  0.0163  0.0198 -0.0000
                                           -0.0069  0.0168  0.0000 -0.0000
                ( 50.00%)   0.7071* C   6 s(  0.00%)p 1.00( 99.97%)d 0.00(  0.03%)
                                            0.0000  0.0000 -0.0000  0.0000 -0.0000
                                           -0.0001  0.0000  0.0000  0.0000  0.0000
                                            0.0000  0.9995  0.0163  0.0198  0.0000
                                           -0.0110 -0.0145 -0.0000 -0.0000
     4. (1.98132) BD ( 1) C   1 - H   7  
                ( 62.64%)   0.7915* C   1 s( 29.73%)p 2.36( 70.23%)d 0.00(  0.04%)
                                           -0.0003  0.5451  0.0130 -0.0035 -0.0016
                                            0.6655  0.0103 -0.0048 -0.5092 -0.0079
                                            0.0037  0.0001  0.0000 -0.0000 -0.0155
                                            0.0000 -0.0000  0.0042 -0.0109
                ( 37.36%)   0.6112* H   7 s(100.00%)
                                            1.0000  0.0028
     5. (1.98029) BD ( 1) C   2 - C   3  
                ( 50.00%)   0.7071* C   2 s( 35.12%)p 1.85( 64.85%)d 0.00(  0.03%)
                                           -0.0000  0.5926 -0.0086  0.0018  0.0009
                                           -0.6507  0.0324  0.0018  0.4729  0.0135
                                           -0.0127  0.0001 -0.0000 -0.0000 -0.0131
                                           -0.0000  0.0000  0.0013 -0.0102
                ( 50.00%)   0.7071* C   3 s( 35.12%)p 1.85( 64.85%)d 0.00(  0.03%)
                                           -0.0000  0.5926 -0.0086  0.0018  0.0009
                                            0.6267  0.0046 -0.0127 -0.5043  0.0348
                                           -0.0015 -0.0001  0.0000  0.0000 -0.0119
                                           -0.0000  0.0000  0.0055 -0.0102
     6. (1.66496) BD ( 2) C   2 - C   3  
                ( 50.00%)   0.7071* C   2 s(  0.00%)p 1.00( 99.97%)d 0.00(  0.03%)
                                           -0.0000 -0.0001 -0.0000 -0.0000  0.0000
                                            0.0000 -0.0000  0.0000 -0.0000  0.0000
                                            0.0000  0.9995  0.0163  0.0198  0.0000
                                           -0.0071  0.0168 -0.0000  0.0000
                ( 50.00%)   0.7071* C   3 s(  0.00%)p 1.00( 99.97%)d 0.00(  0.03%)
                                            0.0000  0.0000 -0.0000  0.0000 -0.0000
                                            0.0001 -0.0000  0.0000 -0.0000  0.0000
                                           -0.0000  0.9995  0.0163  0.0198 -0.0000
                                            0.0181 -0.0024  0.0000 -0.0000
     7. (1.98132) BD ( 1) C   2 - H   8  
                ( 62.64%)   0.7915* C   2 s( 29.73%)p 2.36( 70.24%)d 0.00(  0.04%)
                                            0.0003 -0.5451 -0.0130  0.0035  0.0016
                                            0.1081  0.0017 -0.0008  0.8309  0.0128
                                           -0.0060 -0.0000 -0.0000  0.0000 -0.0041
                                            0.0000  0.0000  0.0155  0.0109
                ( 37.36%)   0.6112* H   8 s(100.00%)
                                           -1.0000 -0.0028
     8. (1.98028) BD ( 1) C   3 - C   4  
                ( 50.00%)   0.7071* C   3 s( 35.11%)p 1.85( 64.86%)d 0.00(  0.03%)
                                            0.0000 -0.5925  0.0086 -0.0018 -0.0009
                                           -0.0842 -0.0279  0.0100 -0.8001  0.0213
                                            0.0079  0.0000  0.0000 -0.0000 -0.0054
                                            0.0000  0.0000  0.0119  0.0102
                ( 50.00%)   0.7071* C   4 s( 35.11%)p 1.85( 64.86%)d 0.00(  0.03%)
                                            0.0000 -0.5925  0.0086 -0.0018 -0.0009
                                            0.1234 -0.0324  0.0077  0.7950 -0.0134
                                           -0.0102 -0.0001  0.0000  0.0000 -0.0012
                                            0.0000  0.0000  0.0131  0.0102
     9. (1.98132) BD ( 1) C   3 - H   9  
                ( 62.64%)   0.7915* C   3 s( 29.73%)p 2.36( 70.23%)d 0.00(  0.04%)
                                            0.0003 -0.5451 -0.0130  0.0035  0.0016
                                            0.7737  0.0120 -0.0056  0.3217  0.0050
                                           -0.0023 -0.0001  0.0000  0.0000 -0.0114
                                            0.0000  0.0000 -0.0113  0.0109
                ( 37.36%)   0.6112* H   9 s(100.00%)
                                           -1.0000 -0.0028
    10. (1.98029) BD ( 1) C   4 - C   5  
                ( 50.00%)   0.7071* C   4 s( 35.13%)p 1.85( 64.85%)d 0.00(  0.03%)
                                           -0.0000  0.5926 -0.0086  0.0018  0.0009
                                            0.7349 -0.0045 -0.0119  0.3271 -0.0348
                                            0.0047 -0.0001  0.0000 -0.0000  0.0076
                                           -0.0000 -0.0000  0.0107 -0.0102
                ( 50.00%)   0.7071* C   5 s( 35.13%)p 1.85( 64.85%)d 0.00(  0.03%)
                                           -0.0000  0.5926 -0.0086  0.0018  0.0009
                                           -0.7501  0.0279  0.0050 -0.2906 -0.0213
                                            0.0118 -0.0000 -0.0000 -0.0000  0.0107
                                           -0.0000 -0.0000  0.0076 -0.0102
    11. (1.66496) BD ( 2) C   4 - C   5  
                ( 50.00%)   0.7071* C   4 s(  0.00%)p 1.00( 99.97%)d 0.00(  0.03%)
                                            0.0000  0.0000 -0.0000  0.0000 -0.0000
                                            0.0001 -0.0000  0.0000  0.0001 -0.0000
                                            0.0000  0.9995  0.0163  0.0198 -0.0000
                                            0.0181 -0.0023  0.0000  0.0000
                ( 50.00%)   0.7071* C   5 s(  0.00%)p 1.00( 99.97%)d 0.00(  0.03%)
                                           -0.0000 -0.0000 -0.0000 -0.0000  0.0000
                                           -0.0001  0.0000 -0.0000  0.0000 -0.0000
                                           -0.0000  0.9995  0.0163  0.0198 -0.0000
                                           -0.0111 -0.0144 -0.0000  0.0000
    12. (1.98132) BD ( 1) C   4 - H  10  
                ( 62.64%)   0.7915* C   4 s( 29.73%)p 2.36( 70.23%)d 0.00(  0.04%)
                                            0.0003 -0.5451 -0.0130  0.0035  0.0016
                                            0.6656  0.0103 -0.0048 -0.5091 -0.0079
                                            0.0037 -0.0000 -0.0000  0.0000  0.0155
                                            0.0000 -0.0000 -0.0042  0.0109
                ( 37.36%)   0.6112* H  10 s(100.00%)
                                           -1.0000 -0.0028
    13. (1.98028) BD ( 1) C   5 - C   6  
                ( 50.00%)   0.7071* C   5 s( 35.12%)p 1.85( 64.86%)d 0.00(  0.03%)
                                           -0.0000  0.5925 -0.0086  0.0018  0.0009
                                            0.6508 -0.0324 -0.0018 -0.4730 -0.0135
                                            0.0127  0.0001 -0.0000 -0.0000 -0.0131
                                            0.0000 -0.0000  0.0013 -0.0102
                ( 50.00%)   0.7071* C   6 s( 35.12%)p 1.85( 64.86%)d 0.00(  0.03%)
                                           -0.0000  0.5925 -0.0086  0.0018  0.0009
                                           -0.6268 -0.0046  0.0127  0.5043 -0.0348
                                            0.0015 -0.0001  0.0000  0.0000 -0.0119
                                            0.0000 -0.0000  0.0055 -0.0102
    14. (1.98132) BD ( 1) C   5 - H  11  
                ( 62.64%)   0.7915* C   5 s( 29.73%)p 2.36( 70.24%)d 0.00(  0.04%)
                                           -0.0003  0.5451  0.0130 -0.0035 -0.0016
                                            0.1082  0.0017 -0.0008  0.8309  0.0128
                                           -0.0060  0.0000  0.0000 -0.0000  0.0041
                                            0.0000  0.0000 -0.0155 -0.0109
                ( 37.36%)   0.6112* H  11 s(100.00%)
                                            1.0000  0.0028
    15. (1.98132) BD ( 1) C   6 - H  12  
                ( 62.64%)   0.7915* C   6 s( 29.73%)p 2.36( 70.23%)d 0.00(  0.04%)
                                           -0.0003  0.5451  0.0130 -0.0035 -0.0016
                                            0.7737  0.0120 -0.0056  0.3219  0.0050
                                           -0.0023  0.0000 -0.0000  0.0000  0.0114
                                           -0.0000 -0.0000  0.0113 -0.0109
                ( 37.36%)   0.6112* H  12 s(100.00%)
                                            1.0000  0.0028
    16. (1.99911) CR ( 1) C   1           s(100.00%)p 0.00(  0.00%)
                                            1.0000  0.0002  0.0000 -0.0000 -0.0000
                                            0.0002  0.0000 -0.0000 -0.0001 -0.0000
                                            0.0000  0.0000  0.0000  0.0000 -0.0000
                                           -0.0000  0.0000  0.0000 -0.0000
    17. (1.99911) CR ( 1) C   2           s(100.00%)p 0.00(  0.00%)
                                            1.0000  0.0002  0.0000 -0.0000 -0.0000
                                           -0.0000 -0.0000  0.0000 -0.0002 -0.0000
                                            0.0000  0.0000  0.0000  0.0000  0.0000
                                           -0.0000  0.0000 -0.0000 -0.0000
    18. (1.99911) CR ( 1) C   3           s(100.00%)p 0.00(  0.00%)
                                            1.0000  0.0002  0.0000 -0.0000 -0.0000
                                           -0.0002 -0.0000  0.0000 -0.0001 -0.0000
                                            0.0000 -0.0000 -0.0000 -0.0000  0.0000
                                           -0.0000  0.0000  0.0000 -0.0000
    19. (1.99911) CR ( 1) C   4           s(100.00%)p 0.00(  0.00%)
                                            1.0000  0.0002  0.0000 -0.0000 -0.0000
                                           -0.0002 -0.0000  0.0000  0.0001  0.0000
                                           -0.0000 -0.0000 -0.0000 -0.0000 -0.0000
                                           -0.0000  0.0000  0.0000 -0.0000
    20. (1.99911) CR ( 1) C   5           s(100.00%)p 0.00(  0.00%)
                                            1.0000  0.0002  0.0000 -0.0000 -0.0000
                                            0.0000  0.0000 -0.0000  0.0002  0.0000
                                           -0.0000  0.0000  0.0000  0.0000  0.0000
                                           -0.0000 -0.0000 -0.0000 -0.0000
    21. (1.99911) CR ( 1) C   6           s(100.00%)p 0.00(  0.00%)
                                            1.0000  0.0002  0.0000 -0.0000 -0.0000
                                            0.0002  0.0000 -0.0000  0.0001  0.0000
                                           -0.0000 -0.0000 -0.0000 -0.0000  0.0000
                                            0.0000  0.0000  0.0000 -0.0000
    22. (0.00458) RY*( 1) C   1           s(  1.68%)p53.10( 88.94%)d 5.60(  9.38%)
                                           -0.0000 -0.0111  0.1168  0.0442  0.0321
                                            0.0212 -0.7485  0.0133 -0.0162  0.5728
                                           -0.0102 -0.0000  0.0000  0.0000  0.2928
                                            0.0000  0.0000 -0.0794  0.0424
    23. (0.00258) RY*( 2) C   1           s(  0.00%)p 1.00( 97.81%)d 0.02(  2.19%)
                                            0.0000  0.0000  0.0002 -0.0001 -0.0000
                                            0.0235  0.5931 -0.0942  0.0307  0.7751
                                           -0.1233 -0.0000  0.0003  0.0000 -0.0389
                                            0.0000 -0.0000 -0.1428  0.0000
    24. (0.00075) RY*( 3) C   1           s(  0.00%)p 1.00( 89.49%)d 0.12( 10.51%)
                                            0.0000 -0.0000  0.0001  0.0000  0.0000
                                           -0.0000  0.0002  0.0000  0.0000  0.0002
                                           -0.0000  0.0163 -0.8439 -0.4272 -0.0000
                                           -0.1182  0.3018  0.0000 -0.0000
    25. (0.00054) RY*( 4) C   1           s(  0.00%)p 1.00(  2.60%)d37.45( 97.40%)
                                           -0.0000  0.0000  0.0011  0.0000  0.0002
                                           -0.0000  0.0001 -0.0001  0.0000 -0.0001
                                            0.0001 -0.0121  0.1435  0.0726 -0.0002
                                            0.6366  0.7541  0.0000 -0.0000
    26. (0.00041) RY*( 5) C   1           s( 96.20%)p 0.03(  3.24%)d 0.01(  0.56%)
                                            0.0000  0.0047  0.9489  0.2446  0.0434
                                           -0.0166  0.0905 -0.1091  0.0127 -0.0694
                                            0.0837  0.0000 -0.0000 -0.0000 -0.0309
                                           -0.0007 -0.0009  0.0086 -0.0676
    27. (0.00015) RY*( 6) C   1           s( 72.61%)p 0.07(  4.75%)d 0.31( 22.64%)
                                           -0.0000 -0.0008 -0.2378  0.7932 -0.2009
                                            0.0092  0.1065 -0.0852 -0.0014 -0.0376
                                            0.1656 -0.0000  0.0000  0.0000  0.4002
                                            0.0002  0.0002  0.0435 -0.2537
    28. (0.00014) RY*( 7) C   1           s(  2.18%)p11.70( 25.50%)d33.19( 72.32%)
                                           -0.0000 -0.0001 -0.0409  0.1375 -0.0347
                                           -0.0145 -0.1072 -0.3033 -0.0212 -0.1707
                                           -0.3488 -0.0000 -0.0001  0.0001 -0.1590
                                            0.0000  0.0000 -0.8343 -0.0439
    29. (0.00003) RY*( 8) C   1           s(  0.04%)p99.99( 76.04%)d99.99( 23.92%)
    30. (0.00004) RY*( 9) C   1           s( 27.07%)p 1.83( 49.51%)d 0.86( 23.42%)
    31. (0.00001) RY*(10) C   1           s( 17.41%)p 0.44(  7.63%)d 4.30( 74.95%)
    32. (0.00000) RY*(11) C   1           s(  0.00%)p 1.00(  7.94%)d11.60( 92.06%)
    33. (0.00001) RY*(12) C   1           s( 58.08%)p 0.69( 39.85%)d 0.04(  2.06%)
    34. (0.00000) RY*(13) C   1           s(  0.00%)p 1.00(100.00%)d 0.00(  0.00%)
    35. (0.00000) RY*(14) C   1           s( 24.75%)p 0.27(  6.79%)d 2.77( 68.46%)
    36. (0.00458) RY*( 1) C   2           s(  1.68%)p53.08( 88.94%)d 5.60(  9.38%)
                                            0.0000 -0.0111  0.1168  0.0442  0.0321
                                           -0.0035  0.1215 -0.0021 -0.0265  0.9347
                                           -0.0167 -0.0000 -0.0001  0.0000 -0.0776
                                           -0.0000 -0.0000  0.2933  0.0424
    37. (0.00258) RY*( 2) C   2           s(  0.00%)p 1.00( 97.81%)d 0.02(  2.19%)
                                            0.0000  0.0000  0.0002 -0.0001 -0.0000
                                           -0.0383 -0.9678  0.1539  0.0050  0.1258
                                           -0.0201 -0.0000  0.0001  0.0000 -0.1430
                                            0.0000 -0.0000 -0.0380  0.0000
    38. (0.00075) RY*( 3) C   2           s(  0.00%)p 1.00( 89.49%)d 0.12( 10.51%)
                                            0.0000  0.0000  0.0001 -0.0000  0.0000
                                            0.0000  0.0001  0.0000  0.0000  0.0000
                                            0.0001 -0.0163  0.8439  0.4272 -0.0000
                                            0.1307 -0.2966 -0.0000 -0.0001
    39. (0.00054) RY*( 4) C   2           s(  0.00%)p 1.00(  2.60%)d37.43( 97.40%)
                                           -0.0000  0.0000  0.0004 -0.0000  0.0001
                                            0.0000 -0.0000  0.0001  0.0000 -0.0000
                                            0.0000 -0.0121  0.1435  0.0726  0.0001
                                           -0.9836  0.0802 -0.0001 -0.0000
    40. (0.00041) RY*( 5) C   2           s( 96.20%)p 0.03(  3.24%)d 0.01(  0.56%)
                                           -0.0000  0.0047  0.9489  0.2446  0.0433
                                            0.0027 -0.0146  0.0176  0.0208 -0.1132
                                            0.1363  0.0000 -0.0001 -0.0002  0.0085
                                            0.0004  0.0000 -0.0309 -0.0676
    41. (0.00014) RY*( 6) C   2           s(  0.80%)p32.45( 25.91%)d91.82( 73.30%)
                                           -0.0000 -0.0001 -0.0247  0.0833 -0.0209
                                            0.0256  0.1995  0.4641 -0.0042 -0.0373
                                           -0.0428 -0.0000 -0.0000  0.0000 -0.8364
                                           -0.0001  0.0000 -0.1810 -0.0265
    42. (0.00015) RY*( 7) C   2           s( 73.99%)p 0.06(  4.34%)d 0.29( 21.67%)
                                            0.0000 -0.0008 -0.2401  0.8007 -0.2028
                                           -0.0037 -0.0350 -0.0259 -0.0078 -0.1047
                                            0.1746  0.0000  0.0001 -0.0001 -0.0111
                                           -0.0001 -0.0000  0.3885 -0.2561
    43. (0.00004) RY*( 8) C   2           s( 26.88%)p 1.85( 49.70%)d 0.87( 23.42%)
    44. (0.00003) RY*( 9) C   2           s(  0.23%)p99.99( 75.85%)d99.99( 23.92%)
    45. (0.00001) RY*(10) C   2           s( 73.23%)p 0.24( 17.47%)d 0.13(  9.30%)
    46. (0.00000) RY*(11) C   2           s(  0.00%)p 1.00(100.00%)d 0.00(  0.00%)
    47. (0.00000) RY*(12) C   2           s(  0.00%)p 1.00(  7.94%)d11.60( 92.06%)
    48. (0.00001) RY*(13) C   2           s( 14.75%)p 0.61(  9.02%)d 5.17( 76.23%)
    49. (0.00000) RY*(14) C   2           s( 12.27%)p 2.26( 27.78%)d 4.88( 59.95%)
    50. (0.00458) RY*( 1) C   3           s(  1.67%)p53.11( 88.94%)d 5.60(  9.38%)
                                           -0.0000 -0.0111  0.1168  0.0442  0.0321
                                           -0.0246  0.8704 -0.0156 -0.0103  0.3618
                                           -0.0064  0.0000  0.0000  0.0000 -0.2151
                                            0.0000  0.0000 -0.2139  0.0424
    51. (0.00258) RY*( 2) C   3           s(  0.00%)p 1.00( 97.81%)d 0.02(  2.19%)
                                            0.0000  0.0000  0.0002 -0.0001 -0.0000
                                            0.0148  0.3747 -0.0596 -0.0357 -0.9012
                                            0.1433  0.0000 -0.0001 -0.0000 -0.1042
                                           -0.0000  0.0000  0.1050  0.0000
    52. (0.00075) RY*( 3) C   3           s(  0.00%)p 1.00( 89.49%)d 0.12( 10.51%)
                                           -0.0000  0.0000  0.0002  0.0001  0.0000
                                            0.0000 -0.0000  0.0000  0.0000  0.0001
                                            0.0000  0.0163 -0.8439 -0.4271 -0.0000
                                            0.3205 -0.0486  0.0000 -0.0001
    53. (0.00054) RY*( 4) C   3           s(  0.00%)p 1.00(  2.61%)d37.38( 97.39%)
                                            0.0000  0.0000  0.0006  0.0001  0.0001
                                            0.0000 -0.0001  0.0001  0.0000 -0.0000
                                            0.0000  0.0121 -0.1436 -0.0727  0.0002
                                           -0.3347  0.9284 -0.0001 -0.0000
    54. (0.00041) RY*( 5) C   3           s( 96.20%)p 0.03(  3.24%)d 0.01(  0.56%)
                                            0.0000  0.0047  0.9489  0.2446  0.0434
                                            0.0193 -0.1054  0.1271  0.0080 -0.0437
                                            0.0527 -0.0000  0.0002  0.0002  0.0229
                                            0.0001 -0.0006  0.0224 -0.0676
    55. (0.00015) RY*( 6) C   3           s( 74.79%)p 0.05(  4.11%)d 0.28( 21.11%)
                                           -0.0000 -0.0008 -0.2413  0.8050 -0.2039
                                           -0.0076 -0.1004  0.1580 -0.0032 -0.0424
                                            0.0647 -0.0000 -0.0001  0.0002 -0.2684
                                           -0.0001  0.0001 -0.2696 -0.2575
[...]
   D21        0.00002  -0.00000   0.00000  -0.00002  -0.00002   0.00000
   D22       -3.14159  -0.00000   0.00000  -0.00000  -0.00000   3.14159
   D23       -3.14159  -0.00000   0.00000  -0.00000  -0.00000   3.14159
   D24       -0.00002   0.00000   0.00000   0.00002   0.00002   0.00000
         Item               Value     Threshold  Converged?
 Maximum Force            0.000014     0.000450     YES
 RMS     Force            0.000005     0.000300     YES
 Maximum Displacement     0.000076     0.001800     YES
 RMS     Displacement     0.000025     0.001200     YES
 Predicted change in Energy=-2.967726D-09
 Optimization completed.
    -- Stationary point found.
                           ----------------------------
                           !   Optimized Parameters   !
                           ! (Angstroms and Degrees)  !
 --------------------------                            --------------------------
 ! Name  Definition              Value          Derivative Info.                !
 --------------------------------------------------------------------------------
 ! R1    R(1,2)                  1.4046         -DE/DX =    0.0                 !
 ! R2    R(1,6)                  1.4046         -DE/DX =    0.0                 !
 ! R3    R(1,7)                  1.0957         -DE/DX =    0.0                 !
 ! R4    R(2,3)                  1.4046         -DE/DX =    0.0                 !
 ! R5    R(2,8)                  1.0957         -DE/DX =    0.0                 !
 ! R6    R(3,4)                  1.4046         -DE/DX =    0.0                 !
 ! R7    R(3,9)                  1.0957         -DE/DX =    0.0                 !
 ! R8    R(4,5)                  1.4046         -DE/DX =    0.0                 !
 ! R9    R(4,10)                 1.0957         -DE/DX =    0.0                 !
 ! R10   R(5,6)                  1.4046         -DE/DX =    0.0                 !
 ! R11   R(5,11)                 1.0957         -DE/DX =    0.0                 !
 ! R12   R(6,12)                 1.0957         -DE/DX =    0.0                 !
 ! A1    A(2,1,6)              119.9999         -DE/DX =    0.0                 !
 ! A2    A(2,1,7)              119.9979         -DE/DX =    0.0                 !
 ! A3    A(6,1,7)              120.0022         -DE/DX =    0.0                 !
 ! A4    A(1,2,3)              120.0004         -DE/DX =    0.0                 !
 ! A5    A(1,2,8)              119.9982         -DE/DX =    0.0                 !
 ! A6    A(3,2,8)              120.0014         -DE/DX =    0.0                 !
 ! A7    A(2,3,4)              119.9997         -DE/DX =    0.0                 !
 ! A8    A(2,3,9)              120.0025         -DE/DX =    0.0                 !
 ! A9    A(4,3,9)              119.9978         -DE/DX =    0.0                 !
 ! A10   A(3,4,5)              119.9999         -DE/DX =    0.0                 !
 ! A11   A(3,4,10)             119.9981         -DE/DX =    0.0                 !
 ! A12   A(5,4,10)             120.002          -DE/DX =    0.0                 !
 ! A13   A(4,5,6)              120.0004         -DE/DX =    0.0                 !
 ! A14   A(4,5,11)             120.0022         -DE/DX =    0.0                 !
 ! A15   A(6,5,11)             119.9974         -DE/DX =    0.0                 !
 ! A16   A(1,6,5)              119.9997         -DE/DX =    0.0                 !
 ! A17   A(1,6,12)             120.0019         -DE/DX =    0.0                 !
 ! A18   A(5,6,12)             119.9985         -DE/DX =    0.0                 !
 ! D1    D(6,1,2,3)             -0.0007         -DE/DX =    0.0                 !
 ! D2    D(6,1,2,8)            180.0003         -DE/DX =    0.0                 !
 ! D3    D(7,1,2,3)            179.9991         -DE/DX =    0.0                 !
 ! D4    D(7,1,2,8)              0.0001         -DE/DX =    0.0                 !
 ! D5    D(2,1,6,5)             -0.0005         -DE/DX =    0.0                 !
 ! D6    D(2,1,6,12)          -179.9996         -DE/DX =    0.0                 !
 ! D7    D(7,1,6,5)            179.9998         -DE/DX =    0.0                 !
 ! D8    D(7,1,6,12)             0.0007         -DE/DX =    0.0                 !
 ! D9    D(1,2,3,4)              0.0013         -DE/DX =    0.0                 !
 ! D10   D(1,2,3,9)            180.0007         -DE/DX =    0.0                 !
 ! D11   D(8,2,3,4)            180.0003         -DE/DX =    0.0                 !
 ! D12   D(8,2,3,9)             -0.0003         -DE/DX =    0.0                 !
 ! D13   D(2,3,4,5)             -0.0007         -DE/DX =    0.0                 !
 ! D14   D(2,3,4,10)           179.9994         -DE/DX =    0.0                 !
 ! D15   D(9,3,4,5)            179.9998         -DE/DX =    0.0                 !
 ! D16   D(9,3,4,10)             0.0            -DE/DX =    0.0                 !
 ! D17   D(3,4,5,6)             -0.0004         -DE/DX =    0.0                 !
 ! D18   D(3,4,5,11)           180.0006         -DE/DX =    0.0                 !
 ! D19   D(10,4,5,6)           179.9994         -DE/DX =    0.0                 !
 ! D20   D(10,4,5,11)            0.0004         -DE/DX =    0.0                 !
 ! D21   D(4,5,6,1)              0.001          -DE/DX =    0.0                 !
 ! D22   D(4,5,6,12)           180.0001         -DE/DX =    0.0                 !
 ! D23   D(11,5,6,1)           180.0            -DE/DX =    0.0                 !
 ! D24   D(11,5,6,12)           -0.0009         -DE/DX =    0.0                 !
 --------------------------------------------------------------------------------
 GradGradGradGradGradGradGradGradGradGradGradGradGradGradGradGradGradGrad

 Leave Link  103 at Tue Nov 19 14:12:20 2019, MaxMem=  7381975040 cpu:               4.8 elap:               0.2
 (Enter /hpc/sw/g16-B.01-avx//g16/l9999.exe)

 ----------------------------------------------------------------------

 Electric dipole moment (input orientation):
 (Debye = 10**-18 statcoulomb cm , SI units = C m)
                  (au)            (Debye)         (10**-30 SI)
   Tot        0.000000D+00      0.000000D+00      0.000000D+00
   x          0.000000D+00      0.000000D+00      0.000000D+00
   y          0.000000D+00      0.000000D+00      0.000000D+00
   z          0.000000D+00      0.000000D+00      0.000000D+00

 Dipole polarizability, Alpha (input orientation).
 (esu units = cm**3 , SI units = C**2 m**2 J**-1)
 Alpha(0;0):
               (au)            (10**-24 esu)      (10**-40 SI)
   iso        0.675243D+02      0.100061D+02      0.111332D+02
   aniso      0.394566D+02      0.584687D+01      0.650552D+01
   xx         0.806766D+02      0.119550D+02      0.133018D+02
   yx        -0.154846D-02     -0.229458D-03     -0.255307D-03
   yy         0.806763D+02      0.119550D+02      0.133017D+02
   zx         0.125833D-01      0.186465D-02      0.207471D-02
   zy        -0.252709D-01     -0.374476D-02     -0.416661D-02
   zz         0.412199D+02      0.610816D+01      0.679624D+01

 ----------------------------------------------------------------------

 Dipole orientation:
     6          2.08637077          3.77258039          0.80901584
     6          4.60779594          3.75968618          1.63840696
     6          5.87942198          1.45563752          1.98412595
     6          4.62966810         -0.83559699          1.50041081
     6          2.10832897         -0.82270227          0.67102388
     6          0.83664852          1.48141676          0.32533898
     1          1.09447925          5.56994760          0.53938477
     1          5.58261469          5.54699259          2.01570372
     1          7.84624383          1.44550300          2.63110878
     1          5.62167832         -2.63289098          1.77009336
     1          1.13338683         -2.60993529          0.29369820
     1         -1.13017550          1.49140489         -0.32163965

 Electric dipole moment (dipole orientation):
 (Debye = 10**-18 statcoulomb cm , SI units = C m)
                  (au)            (Debye)         (10**-30 SI)
   Tot        0.000000D+00      0.000000D+00      0.000000D+00
   x          0.000000D+00      0.000000D+00      0.000000D+00
   y          0.000000D+00      0.000000D+00      0.000000D+00
   z          0.000000D+00      0.000000D+00      0.000000D+00

 Dipole polarizability, Alpha (dipole orientation).
 (esu units = cm**3 , SI units = C**2 m**2 J**-1)
 Alpha(0;0):
               (au)            (10**-24 esu)      (10**-40 SI)
   iso        0.675243D+02      0.100061D+02      0.111332D+02
   aniso      0.394566D+02      0.584687D+01      0.650552D+01
   xx         0.768242D+02      0.113842D+02      0.126666D+02
   yx        -0.368415D+00     -0.545934D-01     -0.607434D-01
   yy         0.806408D+02      0.119497D+02      0.132959D+02
   zx         0.117059D+02      0.173463D+01      0.193004D+01
   zy         0.112442D+01      0.166621D+00      0.185391D+00
   zz         0.451079D+02      0.668429D+01      0.743728D+01

 ----------------------------------------------------------------------
 1\1\GINC-TCN571\Freq\RPBEPBE\6-31+G(d)\C6H6\SELSAMI\19-Nov-2019\0\\#P 
 Geom=AllCheck Guess=TCheck SCRF=Check GenChk RPBEPBE/6-31+G(d) Freq\\b
 enzene\\0,1\C,1.1727401044,-2.003091822,0.000063343\C,2.5773682249,-2.
 0031600736,0.0005183853\C,3.2797286197,-0.7867945922,-0.0000501104\C,2
 .5774767365,0.4296822962,-0.0010458478\C,1.1728925508,0.4297504383,-0.
 0014887429\C,0.4705102686,-0.7866529605,-0.000945239\H,0.6248917106,-2
 .9519681205,0.0004913809\H,3.1251295423,-2.9520878993,0.0012996843\H,4
 .3754037126,-0.7868077374,0.0002927976\H,3.1253931223,1.3785193425,-0.
 0014789103\H,0.625064242,1.3786395933,-0.0022747476\H,-0.6251648349,-0
 .786562465,-0.0012929931\\Version=ES64L-G16RevB.01\State=1-A\HF=-231.9
 449776\RMSD=3.282e-09\RMSF=1.004e-05\ZeroPoint=0.0979335\Thermal=0.102
 4679\Dipole=0.0000013,-0.0000001,-0.0000039\DipoleDeriv=-0.0047285,0.0
 607406,0.0000057,0.0608051,0.0654069,-0.0001121,0.0000086,-0.0001114,-
 0.1414909,-0.0048696,-0.0607902,0.0000837,-0.0607563,0.0653735,-0.0001
 539,0.0000793,-0.0001482,-0.1414539,0.1004901,0.0000352,0.000073,-0.00
 00406,-0.0398775,-0.0000652,0.0000785,-0.0000662,-0.1414108,-0.0047255
 ,0.0607394,0.0000048,0.0608085,0.0654057,-0.0001129,0.0000037,-0.00011
 13,-0.1414909,-0.0048691,-0.060788,0.000082,-0.0607603,0.0653712,-0.00
 01506,0.0000875,-0.0001579,-0.1414538,0.1004895,0.0000305,0.0000791,-0
 .0000398,-0.0398771,-0.000065,0.0000694,-0.0000642,-0.1414101,0.016519
 1,-0.0810741,0.0000114,-0.0811001,-0.0771178,0.000114,0.0000099,0.0001
 136,0.1414777,0.0165285,0.0810833,-0.0000921,0.081088,-0.0771273,0.000
 1669,-0.0000892,0.0001628,0.1414531,-0.1239286,0.0000043,-0.0000828,-0
 .0000078,0.063331,0.0000503,-0.0000856,0.0000508,0.1414244,0.0165063,-
 0.0810903,0.0000126,-0.0810988,-0.0771053,0.0001139,0.0000135,0.000113
 8,0.1414777,0.016516,0.0810991,-0.0000916,0.0810867,-0.0771145,0.00016
 49,-0.0000946,0.000169,0.1414531,-0.1239283,0.0000103,-0.0000858,0.000
 0153,0.0633312,0.0000498,-0.0000809,0.0000493,0.1414243\Polar=80.67661
 3,-0.0015485,80.6763262,0.0125833,-0.0252709,41.2198797\Quadrupole=2.0
 81431,2.081344,-4.162775,0.0000366,0.0019838,-0.0039957\PG=C01 [X(C6H6
 )]\NImag=0\\0.65878808,0.02613094,0.68909475,0.00015718,-0.00035426,0.
 12276166,-0.33010267,-0.02743322,-0.00007127,0.65899215,0.02735190,-0.
 11673329,0.00004690,-0.02597608,0.68909864,-0.00010592,0.00002949,-0.0
 5696008,0.00018732,-0.00037310,0.12274085,-0.02560462,-0.02679337,0.00
 000715,-0.17017288,-0.11981207,0.00004214,0.70410487,-0.06532329,0.027
 52968,-0.00003415,-0.06502612,-0.27685261,0.00012238,0.00006954,0.6439
 9776,0.00003145,-0.00002199,0.00660989,0.00000719,0.00010505,-0.056972
 08,0.00018120,-0.00033505,0.12275000,-0.04235593,0.02396702,-0.0000269
 2,0.05413544,0.01922087,0.00000272,-0.17002077,0.06495932,-0.00007666,
 0.65888324,0.02396607,-0.01470617,0.00001291,-0.01930351,-0.05221530,0
 .00003136,0.11973589,-0.27680192,0.00017778,0.02618598,0.68899926,-0.0
 0002655,0.00001270,-0.00662987,0.00002733,0.00004407,0.00661409,-0.000
 11175,0.00016018,-0.05697689,0.00015197,-0.00035300,0.12276165,0.05413
 542,-0.01930433,0.00002776,-0.04236537,-0.02393059,0.00000402,-0.02567
 159,0.06533874,-0.00005213,-0.33020333,-0.02743190,-0.00006839,0.65908
 714,0.01922007,-0.05221524,0.00004359,-0.02392959,-0.01472015,-0.00000
 237,0.02681585,0.02751120,-0.00000502,0.02735066,-0.11672913,0.0000470
 0,-0.02603073,0.68900404,0.00000301,0.00003160,0.00661407,0.00000383,-
 0.00000249,-0.00662472,-0.00002733,0.00000737,0.00662786,-0.00010386,0
 .00002960,-0.05695167,0.00018843,-0.00036965,0.12274074,-0.17004285,0.
 11978014,-0.00011353,-0.02567225,0.02681544,-0.00002757,-0.00091179,-0
 .00001644,0.00000182,-0.02560388,-0.02679378,0.00000664,-0.17015083,-0
 .11976826,0.00003938,0.70410486,0.06500607,-0.27687656,0.00016247,0.06
 533834,0.02751190,0.00000743,-0.00001743,-0.05617445,0.00003184,-0.065
 32370,0.02752898,-0.00003416,-0.06497971,-0.27677854,0.00011813,-0.000
 03999,0.64399814,-0.00007828,0.00017982,-0.05696847,-0.00005224,-0.000
 00470,0.00662785,0.00000181,0.00003163,-0.00661265,0.00003157,-0.00002
 180,0.00660988,0.00000434,0.00010057,-0.05698035,0.00018691,-0.0003326
 0,0.12274985,-0.12193420,-0.11606319,0.00004524,-0.01046241,-0.0277390
 5,0.00001361,-0.00545095,0.00163812,-0.00000504,-0.00079004,0.00085384
 ,-0.00000057,-0.00096376,0.00293187,-0.00000444,0.01073722,0.01438423,
 -0.00000651,0.12714569,-0.11606524,-0.25596808,0.00010466,0.00214914,0
 .00302755,0.00000034,0.00034181,0.00167389,0.00000339,0.00085407,0.000
 19547,-0.00000029,0.00422772,-0.00281234,0.00000754,-0.01550178,-0.018
 17032,0.00000817,0.12483758,0.27130828,0.00004514,0.00010456,-0.033317
 78,-0.00000539,-0.00000932,0.00247659,-0.00000418,0.00000376,0.0068150
 4,-0.00000067,-0.00000023,-0.00069160,-0.00000517,0.00000717,0.0068163
 1,0.00001267,0.00001787,0.00247911,-0.00004606,-0.00011790,0.02345714,
 -0.01045814,0.02773973,-0.00002188,-0.12191957,0.11604473,-0.00010239,
 0.01073636,-0.01438827,0.00001183,-0.00096422,-0.00293293,-0.00000056,
 -0.00079063,-0.00085270,0.00000051,-0.00545202,-0.00163704,-0.00000287
 ,0.00095818,-0.00028997,0.00000166,0.12712988,-0.00214995,0.00302509,-
 0.00000105,0.11604500,-0.25596453,0.00017953,0.01550057,-0.01816923,0.
 00001810,-0.00422895,-0.00281030,0.00000489,-0.00085251,0.00019424,-0.
 00000084,-0.00034025,0.00167384,0.00000320,0.00028995,0.00083911,-0.00
 000280,-0.12481678,0.27130605,-0.00000293,0.00000862,0.00247772,-0.000
 10213,0.00017919,-0.03331963,-0.00000746,0.00000882,0.00247710,0.00000
 033,0.00000533,0.00681566,0.00000060,-0.00000086,-0.00069108,-0.000003
 78,0.00000265,0.00681566,0.00000132,-0.00000297,-0.00367364,0.00011283
 ,-0.00019845,0.02345886,0.00075259,-0.00323781,0.00000023,-0.01142801,
 0.00270662,-0.00000615,-0.32298049,0.00000166,-0.00009061,-0.01142469,
 -0.00270698,-0.00000265,0.00074963,0.00323927,-0.00000394,0.00068667,-
 0.00000020,0.00000043,-0.00069626,0.00020025,-0.00000044,0.00086873,-0
 .00023858,0.00000157,0.34338607,-0.00194235,-0.00452623,0.00000671,-0.
 02718105,0.00399335,-0.00000955,0.00000242,-0.05493385,0.00001397,0.02
 718110,0.00399116,0.00000757,0.00194207,-0.00452714,0.00000789,-0.0000
 0028,-0.00128293,0.00000038,-0.00151139,0.00006081,-0.00000035,0.00034
 190,0.00092830,-0.00000285,-0.00000220,0.05508020,-0.00000067,0.000006
 36,0.00681571,0.00001323,-0.00000019,0.00247703,-0.00009084,0.00001399
 ,-0.03332337,-0.00002166,-0.00000187,0.00247424,-0.00000323,0.00000818
 ,0.00681486,0.00000038,0.00000044,-0.00069083,0.00000068,0.00000020,0.
 00029496,0.00000121,-0.00000304,-0.00367495,0.00010012,-0.00002035,0.0
 2346768,-0.00079012,0.00085374,-0.00000058,-0.00096378,0.00293194,-0.0
 0000430,0.01073661,0.01438415,-0.00000662,-0.12195042,-0.11607349,0.00
 004632,-0.01046180,-0.02773829,0.00001362,-0.00545035,0.00163836,-0.00
 000489,0.00014838,-0.00013587,0.00000054,0.00043926,0.00085577,-0.0000
 0052,0.00086898,-0.00034162,0.00000165,0.12716121,0.00085407,0.0001955
 4,-0.00000029,0.00422783,-0.00281302,0.00000745,-0.01550256,-0.0181714
 9,0.00000836,-0.11607365,-0.25595176,0.00010549,0.00214922,0.00302864,
 0.00000033,0.00034208,0.00167401,0.00000338,-0.00013582,-0.00000846,-0
 .00000085,-0.00085595,-0.00107477,0.00000063,0.00023814,0.00092879,-0.
 00000286,0.12484654,0.27129273,-0.00000046,-0.00000035,-0.00069160,-0.
 00000522,0.00000700,0.00681512,0.00001241,0.00001788,0.00247909,0.0000
 4641,0.00010545,-0.03331778,-0.00000557,-0.00000908,0.00247662,-0.0000
 0409,0.00000389,0.00681623,0.00000055,-0.00000085,-0.00127574,0.000000
 58,0.00000114,0.00029501,0.00000126,-0.00000307,-0.00367459,-0.0000470
 9,-0.00011887,0.02345712,-0.00096425,-0.00293299,-0.00000067,-0.000790
 70,-0.00085262,0.00000052,-0.00545143,-0.00163725,-0.00000286,-0.01045
 753,0.02773898,-0.00002191,-0.12193559,0.11605489,-0.00010306,0.010735
 75,-0.01438818,0.00001188,0.00043926,-0.00085592,0.00000060,0.00014840
 ,0.00013588,0.00000037,-0.00069624,0.00151144,-0.00000127,0.00095831,-
 0.00029017,0.00000167,0.12714521,-0.00422904,-0.00281100,0.00000476,-0
 .00085252,0.00019433,-0.00000084,-0.00034050,0.00167395,0.00000319,-0.
 00215006,0.00302619,-0.00000103,0.11605337,-0.25594856,0.00018015,0.01
 550130,-0.01817027,0.00001823,0.00085580,-0.00107476,0.00000116,0.0001
 3583,-0.00000852,-0.00000077,-0.00020017,0.00006074,0.00000009,0.00029
 014,0.00083897,-0.00000281,-0.12482564,0.27129070,0.00000013,0.0000051
 5,0.00681446,0.00000045,-0.00000084,-0.00069108,-0.00000363,0.00000287
 ,0.00681686,-0.00000253,0.00000837,0.00247777,-0.00010332,0.00018056,-
 0.03331962,-0.00000716,0.00000836,0.00247704,-0.00000049,0.00000059,0.
 00029501,0.00000037,-0.00000077,-0.00127569,-0.00000018,0.00000063,0.0
 0029497,0.00000127,-0.00000297,-0.00367446,0.00011348,-0.00019913,0.02
 345887,-0.01142331,-0.00270666,-0.00000270,0.00075005,0.00323892,-0.00
 000401,0.00068668,-0.00000016,0.00000044,0.00075213,-0.00323816,0.0000
 0012,-0.01142928,0.00270696,-0.00000614,-0.32298052,0.00001923,-0.0000
 9215,0.00086890,0.00023821,0.00000129,-0.00069622,-0.00020016,-0.00000
 020,-0.00008697,-0.00000004,0.00000038,-0.00069628,0.00020027,-0.00000
 044,0.00086881,-0.00023850,0.00000160,0.34338602,0.02718076,0.00399152
 ,0.00000773,0.00194177,-0.00452688,0.00000788,-0.00000014,-0.00128293,
 0.00000038,-0.00194267,-0.00452649,0.00000658,-0.02718135,0.00399300,-
 0.00000963,0.00002182,-0.05493381,0.00001373,-0.00034195,0.00092886,-0
 .00000305,0.00151145,0.00006072,0.00000065,0.,0.00022680,-0.00000096,-
 0.00151137,0.00006083,-0.00000032,0.00034158,0.00092824,-0.00000282,-0
 .00001991,0.05508014,-0.00002212,-0.00000169,0.00247427,-0.00000310,0.
 00000842,0.00681606,0.00000048,0.00000031,-0.00069084,-0.00000070,0.00
 000610,0.00681452,0.00001265,-0.00000011,0.00247697,-0.00009169,0.0000
 1368,-0.03332331,0.00000170,-0.00000287,-0.00367541,-0.00000130,0.0000
 0009,0.00029497,0.00000037,-0.00000097,-0.00127572,0.00000062,0.000000
 22,0.00029496,0.00000126,-0.00000302,-0.00367413,0.00010182,-0.0000201
 6,0.02346765\\-0.00002765,-0.00000337,0.,0.00002030,0.00000723,0.00000
 170,0.00000664,-0.00001762,-0.00000137,-0.00000829,0.00002416,0.000000
 19,0.00001532,0.00001318,0.00000131,-0.00000647,-0.00002351,-0.0000014
 1,0.00000546,0.00000573,-0.00000024,-0.00000514,0.00000495,-0.00000017
 ,-0.00000723,0.00000253,-0.00000009,-0.00000048,-0.00000857,0.00000009
 ,0.00000032,-0.00000775,-0.00000038,0.00000725,0.00000306,0.00000037\\
 \@


 WE TEND TO MEET ANY NEW SITUATION BY REORGANIZING. IT CAN BE A
 WONDERFUL METHOD FOR CREATING THE ILLUSION OF PROGRESS WHILE PRODUCING
 CONFUSION, INEFFICIENCY, AND DEMORALIZATION.
     -- PETRONIUS ARBITER, 210 B.C.
 Job cpu time:       0 days  0 hours  8 minutes 38.8 seconds.
 Elapsed time:       0 days  0 hours  0 minutes 22.6 seconds.
 File lengths (MBytes):  RWF=     25 Int=      0 D2E=      0 Chk=      3 Scr=      1
 Normal termination of Gaussian 16 at Tue Nov 19 14:12:20 2019.
