 Entering Gaussian System, Link 0=g16
 Initial command:
 /hpc/sw/g16-B.01-avx//g16/l1.exe "/scratch-local/selsami/Gau-1140.inp" -scrdir="/scratch-local/selsami/"
 Entering Link 1 = /hpc/sw/g16-B.01-avx//g16/l1.exe PID=      1142.
  
 Copyright (c) 1988-2017, Gaussian, Inc.  All Rights Reserved.
  
 This is part of the Gaussian(R) 16 program.  It is based on
 the Gaussian(R) 09 system (copyright 2009, Gaussian, Inc.),
 the Gaussian(R) 03 system (copyright 2003, Gaussian, Inc.),
 the Gaussian(R) 98 system (copyright 1998, Gaussian, Inc.),
 the Gaussian(R) 94 system (copyright 1995, Gaussian, Inc.),
 the Gaussian 92(TM) system (copyright 1992, Gaussian, Inc.),
 the Gaussian 90(TM) system (copyright 1990, Gaussian, Inc.),
 the Gaussian 88(TM) system (copyright 1988, Gaussian, Inc.),
 the Gaussian 86(TM) system (copyright 1986, Carnegie Mellon
 University), and the Gaussian 82(TM) system (copyright 1983,
 Carnegie Mellon University). Gaussian is a federally registered
 trademark of Gaussian, Inc.
  
 This software contains proprietary and confidential information,
 including trade secrets, belonging to Gaussian, Inc.
  
 This software is provided under written license and may be
 used, copied, transmitted, or stored only in accord with that
 written license.
  
 The following legend is applicable only to US Government
 contracts under FAR:
  
                    RESTRICTED RIGHTS LEGEND
  
 Use, reproduction and disclosure by the US Government is
 subject to restrictions as set forth in subparagraphs (a)
 and (c) of the Commercial Computer Software - Restricted
 Rights clause in FAR 52.227-19.
  
 Gaussian, Inc.
 340 Quinnipiac St., Bldg. 40, Wallingford CT 06492
  
  
 ---------------------------------------------------------------
 Warning -- This program may not be used in any manner that
 competes with the business of Gaussian, Inc. or will provide
 assistance to any competitor of Gaussian, Inc.  The licensee
 of this program is prohibited from giving any competitor of
 Gaussian, Inc. access to this program.  By using this program,
 the user acknowledges that Gaussian, Inc. is engaged in the
 business of creating and licensing software in the field of
 computational chemistry and represents and warrants to the
 licensee that it is not a competitor of Gaussian, Inc. and that
 it will not use this program in any manner prohibited above.
 ---------------------------------------------------------------
  

 Cite this work as:
 Gaussian 16, Revision B.01,
 M. J. Frisch, G. W. Trucks, H. B. Schlegel, G. E. Scuseria, 
 M. A. Robb, J. R. Cheeseman, G. Scalmani, V. Barone, 
 G. A. Petersson, H. Nakatsuji, X. Li, M. Caricato, A. V. Marenich, 
 J. Bloino, B. G. Janesko, R. Gomperts, B. Mennucci, H. P. Hratchian, 
 J. V. Ortiz, A. F. Izmaylov, J. L. Sonnenberg, D. Williams-Young, 
 F. Ding, F. Lipparini, F. Egidi, J. Goings, B. Peng, A. Petrone, 
 T. Henderson, D. Ranasinghe, V. G. Zakrzewski, J. Gao, N. Rega, 
 G. Zheng, W. Liang, M. Hada, M. Ehara, K. Toyota, R. Fukuda, 
 J. Hasegawa, M. Ishida, T. Nakajima, Y. Honda, O. Kitao, H. Nakai, 
 T. Vreven, K. Throssell, J. A. Montgomery, Jr., J. E. Peralta, 
 F. Ogliaro, M. J. Bearpark, J. J. Heyd, E. N. Brothers, K. N. Kudin, 
 V. N. Staroverov, T. A. Keith, R. Kobayashi, J. Normand, 
 K. Raghavachari, A. P. Rendell, J. C. Burant, S. S. Iyengar, 
 J. Tomasi, M. Cossi, J. M. Millam, M. Klene, C. Adamo, R. Cammi, 
 J. W. Ochterski, R. L. Martin, K. Morokuma, O. Farkas, 
 J. B. Foresman, and D. J. Fox, Gaussian, Inc., Wallingford CT, 2016.
 
 ******************************************
 Gaussian 16:  ES64L-G16RevB.01 20-Dec-2017
                 7-Dec-2019 
 ******************************************
 %nprocshared=24
 Will use up to   24 processors via shared memory.
 %mem=10GB
 %chk=CC_H8C3_0_1_PBEPBE-GD3BJ_6-31+G-D_d91b46644317dee9c2b868166c66a18c~1.chk
 --------------------------------------------------------------------
 #opt=modredundant PBEPBE 6-31+G(D) EmpiricalDispersion=GD3BJ pop=CM5
 --------------------------------------------------------------------
 1/18=120,19=15,26=3,38=1/1,3;
 2/9=110,12=2,17=6,18=5,40=1/2;
 3/5=1,6=6,7=11,11=2,25=1,30=1,71=1,74=1009,124=41/1,2,3;
 4//1;
 5/5=2,38=5/2;
 6/7=2,8=2,9=2,10=2,28=1,79=1/1;
 7//1,2,3,16;
 1/18=20,19=15,26=3/3(2);
 2/9=110/2;
 99//99;
 2/9=110/2;
 3/5=1,6=6,7=11,11=2,25=1,30=1,71=1,74=1009,124=41/1,2,3;
 4/5=5,16=3,69=1/1;
 5/5=2,38=5/2;
 7//1,2,3,16;
 1/18=20,19=15,26=3/3(-5);
 2/9=110/2;
 6/7=2,8=2,9=2,10=2,19=2,28=1,79=1/1;
 99/9=1/99;
 --------------------------------------------------------------------
 CC_H8C3_0_1_PBEPBE-GD3BJ_6-31+G-D_d91b46644317dee9c2b868166c66a18c~1
 --------------------------------------------------------------------
 Symbolic Z-matrix:
 Charge =  0 Multiplicity = 1
 C                    -1.27761  -0.2599    0.00006 
 C                     0.00001   0.58726   0.00006 
 H                    -2.18435   0.36949   0.0002 
 H                    -1.32255  -0.91275  -0.8903 
 H                    -1.32241  -0.91294   0.8903 
 C                     1.2776   -0.2599   -0.00012 
 H                    -0.00006   1.25393  -0.8832 
 H                     0.00006   1.25373   0.88347 
 H                     2.18436   0.36947  -0.00017 
 H                     1.32258  -0.91289   0.89014 
 H                     1.32241  -0.91278  -0.89046 
 
 The following ModRedundant input section has been read:
 D       3       1       2       6 S  35 10.000                                
 

 GradGradGradGradGradGradGradGradGradGradGradGradGradGradGradGradGradGrad
 Berny optimization.
 Initialization pass.
                           ----------------------------
                           !    Initial Parameters    !
                           ! (Angstroms and Degrees)  !
 --------------------------                            --------------------------
 ! Name  Definition              Value          Derivative Info.                !
 --------------------------------------------------------------------------------
 ! R1    R(1,2)                  1.533          estimate D2E/DX2                !
 ! R2    R(1,3)                  1.1038         estimate D2E/DX2                !
 ! R3    R(1,4)                  1.105          estimate D2E/DX2                !
 ! R4    R(1,5)                  1.105          estimate D2E/DX2                !
 ! R5    R(2,6)                  1.5329         estimate D2E/DX2                !
 ! R6    R(2,7)                  1.1066         estimate D2E/DX2                !
 ! R7    R(2,8)                  1.1066         estimate D2E/DX2                !
 ! R8    R(6,9)                  1.1038         estimate D2E/DX2                !
 ! R9    R(6,10)                 1.105          estimate D2E/DX2                !
 ! R10   R(6,11)                 1.105          estimate D2E/DX2                !
 ! A1    A(2,1,3)              111.6867         estimate D2E/DX2                !
 ! A2    A(2,1,4)              111.1248         estimate D2E/DX2                !
 ! A3    A(2,1,5)              111.1244         estimate D2E/DX2                !
 ! A4    A(3,1,4)              107.6737         estimate D2E/DX2                !
 ! A5    A(3,1,5)              107.6734         estimate D2E/DX2                !
 ! A6    A(4,1,5)              107.3586         estimate D2E/DX2                !
 ! A7    A(1,2,6)              112.9043         estimate D2E/DX2                !
 ! A8    A(1,2,7)              109.4433         estimate D2E/DX2                !
 ! A9    A(1,2,8)              109.4427         estimate D2E/DX2                !
 ! A10   A(6,2,7)              109.4443         estimate D2E/DX2                !
 ! A11   A(6,2,8)              109.4441         estimate D2E/DX2                !
 ! A12   A(7,2,8)              105.9232         estimate D2E/DX2                !
 ! A13   A(2,6,9)              111.6876         estimate D2E/DX2                !
 ! A14   A(2,6,10)             111.1258         estimate D2E/DX2                !
 ! A15   A(2,6,11)             111.126          estimate D2E/DX2                !
 ! A16   A(9,6,10)             107.6714         estimate D2E/DX2                !
 ! A17   A(9,6,11)             107.6711         estimate D2E/DX2                !
 ! A18   A(10,6,11)            107.3594         estimate D2E/DX2                !
 ! D1    D(3,1,2,6)            179.9998         Scan                            !
 ! D2    D(3,1,2,7)            -57.8335         estimate D2E/DX2                !
 ! D3    D(3,1,2,8)             57.8337         estimate D2E/DX2                !
 ! D4    D(4,1,2,6)            -59.7413         estimate D2E/DX2                !
 ! D5    D(4,1,2,7)             62.4254         estimate D2E/DX2                !
 ! D6    D(4,1,2,8)            178.0926         estimate D2E/DX2                !
 ! D7    D(5,1,2,6)             59.7415         estimate D2E/DX2                !
 ! D8    D(5,1,2,7)           -178.0919         estimate D2E/DX2                !
 ! D9    D(5,1,2,8)            -62.4246         estimate D2E/DX2                !
 ! D10   D(1,2,6,9)            179.997          estimate D2E/DX2                !
 ! D11   D(1,2,6,10)           -59.7457         estimate D2E/DX2                !
 ! D12   D(1,2,6,11)            59.74           estimate D2E/DX2                !
 ! D13   D(7,2,6,9)             57.8308         estimate D2E/DX2                !
 ! D14   D(7,2,6,10)           178.0882         estimate D2E/DX2                !
 ! D15   D(7,2,6,11)           -62.4262         estimate D2E/DX2                !
 ! D16   D(8,2,6,9)            -57.8377         estimate D2E/DX2                !
 ! D17   D(8,2,6,10)            62.4196         estimate D2E/DX2                !
 ! D18   D(8,2,6,11)          -178.0947         estimate D2E/DX2                !
 --------------------------------------------------------------------------------
 Trust Radius=3.00D-01 FncErr=1.00D-07 GrdErr=1.00D-06 EigMax=2.50D+02 EigMin=1.00D-04
 Number of optimizations in scan=  36
 Number of steps in this run=     56 maximum allowed number of steps=    100.
 GradGradGradGradGradGradGradGradGradGradGradGradGradGradGradGradGradGrad

                          Input orientation:                          
 ---------------------------------------------------------------------
 Center     Atomic      Atomic             Coordinates (Angstroms)
 Number     Number       Type             X           Y           Z
 ---------------------------------------------------------------------
      1          6           0       -1.277611   -0.259902    0.000063
      2          6           0        0.000008    0.587261    0.000061
      3          1           0       -2.184347    0.369493    0.000197
      4          1           0       -1.322546   -0.912754   -0.890295
      5          1           0       -1.322414   -0.912935    0.890295
      6          6           0        1.277597   -0.259903   -0.000118
      7          1           0       -0.000061    1.253929   -0.883200
      8          1           0        0.000059    1.253732    0.883470
      9          1           0        2.184357    0.369473   -0.000170
     10          1           0        1.322580   -0.912892    0.890136
     11          1           0        1.322407   -0.912781   -0.890463
 ---------------------------------------------------------------------
                    Distance matrix (angstroms):
                    1          2          3          4          5
     1  C    0.000000
     2  C    1.532969   0.000000
     3  H    1.103770   2.195183   0.000000
     4  H    1.104976   2.189047   1.783209   0.000000
     5  H    1.104976   2.189042   1.783206   1.780590   0.000000
     6  C    2.555208   1.532945   3.518692   2.824778   2.824773
     7  H    2.168864   1.106615   2.516689   2.538411   3.096644
     8  H    2.168856   1.106614   2.516680   3.096641   2.538391
     9  H    3.518712   2.195179   4.368704   3.838593   3.838612
    10  H    2.824822   2.189038   3.838625   3.188515   2.644994
    11  H    2.824780   2.189040   3.838597   2.644953   3.188444
                    6          7          8          9         10
     6  C    0.000000
     7  H    2.168855   0.000000
     8  H    2.168853   1.766670   0.000000
     9  H    1.103779   2.516682   2.516722   0.000000
    10  H    1.104975   3.096645   2.538379   1.783189   0.000000
    11  H    1.104976   2.538426   3.096647   1.783187   1.780599
                   11
    11  H    0.000000
 Stoichiometry    C3H8
 Framework group  C1[X(C3H8)]
 Deg. of freedom    27
 Full point group                 C1      NOp   1
 Largest Abelian subgroup         C1      NOp   1
 Largest concise Abelian subgroup C1      NOp   1
                         Standard orientation:                         
 ---------------------------------------------------------------------
 Center     Atomic      Atomic             Coordinates (Angstroms)
 Number     Number       Type             X           Y           Z
 ---------------------------------------------------------------------
      1          6           0        1.277611   -0.259902   -0.000063
      2          6           0       -0.000008    0.587261   -0.000061
      3          1           0        2.184347    0.369493   -0.000197
      4          1           0        1.322546   -0.912754    0.890295
      5          1           0        1.322414   -0.912935   -0.890295
      6          6           0       -1.277597   -0.259903    0.000118
      7          1           0        0.000061    1.253929    0.883200
      8          1           0       -0.000059    1.253732   -0.883470
      9          1           0       -2.184357    0.369473    0.000170
     10          1           0       -1.322580   -0.912892   -0.890136
     11          1           0       -1.322407   -0.912781    0.890463
 ---------------------------------------------------------------------
 Rotational constants (GHZ):          29.1666695           8.3381133           7.3883881
 Standard basis: 6-31+G(d) (6D, 7F)
 There are    73 symmetry adapted cartesian basis functions of A   symmetry.
 There are    73 symmetry adapted basis functions of A   symmetry.
    73 basis functions,   128 primitive gaussians,    73 cartesian basis functions
    13 alpha electrons       13 beta electrons
       nuclear repulsion energy        81.9900330615 Hartrees.
 NAtoms=   11 NActive=   11 NUniq=   11 SFac= 1.00D+00 NAtFMM=   60 NAOKFM=F Big=F
 Integral buffers will be    131072 words long.
 Raffenetti 2 integral format.
 Two-electron integral symmetry is turned on.
 Nuclear repulsion after empirical dispersion term =       81.9840187644 Hartrees.
 One-electron integrals computed using PRISM.
 NBasis=    73 RedAO= T EigKep=  2.20D-04  NBF=    73
 NBsUse=    73 1.00D-06 EigRej= -1.00D+00 NBFU=    73
 ExpMin= 4.38D-02 ExpMax= 3.05D+03 ExpMxC= 4.57D+02 IAcc=3 IRadAn=         5 AccDes= 0.00D+00
 Harris functional with IExCor= 1009 and IRadAn=       5 diagonalized for initial guess.
 HarFok:  IExCor= 1009 AccDes= 0.00D+00 IRadAn=         5 IDoV= 1 UseB2=F ITyADJ=14
 ICtDFT=  3500011 ScaDFX=  1.000000  1.000000  1.000000  1.000000
 FoFCou: FMM=F IPFlag=           0 FMFlag=      100000 FMFlg1=           0
         NFxFlg=           0 DoJE=T BraDBF=F KetDBF=T FulRan=T
         wScrn=  0.000000 ICntrl=       500 IOpCl=  0 I1Cent=   200000004 NGrid=           0
         NMat0=    1 NMatS0=      1 NMatT0=    0 NMatD0=    1 NMtDS0=    0 NMtDT0=    0
 Petite list used in FoFCou.
 Keep J ints in memory in canonical form, NReq=25192566.
 Requested convergence on RMS density matrix=1.00D-08 within 128 cycles.
 Requested convergence on MAX density matrix=1.00D-06.
 Requested convergence on             energy=1.00D-06.
 No special actions if energy rises.
 SCF Done:  E(RPBE-PBE) =  -118.965908232     A.U. after   10 cycles
            NFock= 10  Conv=0.27D-08     -V/T= 2.0112

 **********************************************************************

            Population analysis using the SCF Density.

 **********************************************************************

 Orbital symmetries:
       Occupied  (A) (A) (A) (A) (A) (A) (A) (A) (A) (A) (A) (A)
                 (A)
       Virtual   (A) (A) (A) (A) (A) (A) (A) (A) (A) (A) (A) (A)
                 (A) (A) (A) (A) (A) (A) (A) (A) (A) (A) (A) (A)
                 (A) (A) (A) (A) (A) (A) (A) (A) (A) (A) (A) (A)
                 (A) (A) (A) (A) (A) (A) (A) (A) (A) (A) (A) (A)
                 (A) (A) (A) (A) (A) (A) (A) (A) (A) (A) (A) (A)
 The electronic state is 1-A.
 Alpha  occ. eigenvalues --   -9.89854  -9.88929  -9.88929  -0.70504  -0.61137
 Alpha  occ. eigenvalues --   -0.52198  -0.40502  -0.38679  -0.35099  -0.33318
 Alpha  occ. eigenvalues --   -0.29517  -0.29347  -0.28309
 Alpha virt. eigenvalues --    0.00261   0.02048   0.02450   0.03299   0.05808
 Alpha virt. eigenvalues --    0.06723   0.07395   0.07479   0.08373   0.10282
 Alpha virt. eigenvalues --    0.11062   0.13916   0.16523   0.17200   0.17256
 Alpha virt. eigenvalues --    0.21755   0.22088   0.22243   0.24752   0.28144
 Alpha virt. eigenvalues --    0.30420   0.31728   0.57270   0.59833   0.61369
 Alpha virt. eigenvalues --    0.62435   0.64747   0.65515   0.68334   0.69074
 Alpha virt. eigenvalues --    0.78893   0.88176   0.89818   0.91749   0.93868
 Alpha virt. eigenvalues --    0.96299   1.00347   1.05530   1.06471   1.07332
 Alpha virt. eigenvalues --    1.34917   1.39753   1.42182   1.52512   1.67978
 Alpha virt. eigenvalues --    1.82480   1.86055   1.91578   1.96904   2.03664
 Alpha virt. eigenvalues --    2.16137   2.18164   2.25559   2.31434   2.33932
 Alpha virt. eigenvalues --    2.52065   2.61614   4.08538   4.21445   4.39016
          Condensed to atoms (all electrons):
               1          2          3          4          5          6
     1  C    5.605051   0.109483   0.391121   0.398684   0.398685  -0.108202
     2  C    0.109483   5.640815  -0.065651  -0.052595  -0.052596   0.109482
     3  H    0.391121  -0.065651   0.502140  -0.027249  -0.027249   0.019020
     4  H    0.398684  -0.052595  -0.027249   0.504758  -0.031560  -0.009791
     5  H    0.398685  -0.052596  -0.027249  -0.031560   0.504759  -0.009791
     6  C   -0.108202   0.109482   0.019020  -0.009791  -0.009791   5.605055
     7  H   -0.053015   0.409786  -0.002871  -0.004953   0.004560  -0.053014
     8  H   -0.053016   0.409785  -0.002871   0.004560  -0.004954  -0.053014
     9  H    0.019020  -0.065653  -0.000129  -0.000008  -0.000008   0.391120
    10  H   -0.009794  -0.052593  -0.000008  -0.000449   0.003610   0.398686
    11  H   -0.009792  -0.052596  -0.000008   0.003610  -0.000449   0.398686
               7          8          9         10         11
     1  C   -0.053015  -0.053016   0.019020  -0.009794  -0.009792
     2  C    0.409786   0.409785  -0.065653  -0.052593  -0.052596
     3  H   -0.002871  -0.002871  -0.000129  -0.000008  -0.000008
     4  H   -0.004953   0.004560  -0.000008  -0.000449   0.003610
     5  H    0.004560  -0.004954  -0.000008   0.003610  -0.000449
     6  C   -0.053014  -0.053014   0.391120   0.398686   0.398686
     7  H    0.524869  -0.035417  -0.002872   0.004560  -0.004953
     8  H   -0.035417   0.524870  -0.002871  -0.004954   0.004560
     9  H   -0.002872  -0.002871   0.502148  -0.027251  -0.027251
    10  H    0.004560  -0.004954  -0.027251   0.504757  -0.031559
    11  H   -0.004953   0.004560  -0.027251  -0.031559   0.504759
 Mulliken charges:
               1
     1  C   -0.688226
     2  C   -0.337667
     3  H    0.213756
     4  H    0.214994
     5  H    0.214994
     6  C   -0.688236
     7  H    0.213320
     8  H    0.213321
     9  H    0.213755
    10  H    0.214995
    11  H    0.214994
 Sum of Mulliken charges =  -0.00000
 Mulliken charges with hydrogens summed into heavy atoms:
               1
     1  C   -0.044483
     2  C    0.088975
     6  C   -0.044492
 Electronic spatial extent (au):  <R**2>=            229.8296
 Charge=             -0.0000 electrons
 Dipole moment (field-independent basis, Debye):
    X=             -0.0000    Y=              0.0903    Z=             -0.0000  Tot=              0.0903
 Quadrupole moment (field-independent basis, Debye-Ang):
   XX=            -22.6172   YY=            -22.2515   ZZ=            -21.7597
   XY=              0.0001   XZ=              0.0000   YZ=              0.0001
 Traceless Quadrupole moment (field-independent basis, Debye-Ang):
   XX=             -0.4077   YY=             -0.0420   ZZ=              0.4497
   XY=              0.0001   XZ=              0.0000   YZ=              0.0001
 Octapole moment (field-independent basis, Debye-Ang**2):
  XXX=             -0.0002  YYY=              0.4544  ZZZ=              0.0001  XYY=              0.0001
  XXY=              1.5949  XXZ=             -0.0001  XZZ=             -0.0001  YZZ=             -0.5031
  YYZ=             -0.0001  XYZ=             -0.0002
 Hexadecapole moment (field-independent basis, Debye-Ang**3):
 XXXX=           -213.2221 YYYY=            -76.4144 ZZZZ=            -47.0394 XXXY=              0.0007
 XXXZ=              0.0055 YYYX=              0.0001 YYYZ=              0.0022 ZZZX=              0.0063
 ZZZY=              0.0009 XXYY=            -47.7501 XXZZ=            -44.3504 YYZZ=            -18.3762
 XXYZ=              0.0005 YYXZ=              0.0020 ZZXY=              0.0001
 N-N= 8.198401876440D+01 E-N=-4.382209154351D+02  KE= 1.176469251210D+02
 There are a total of      250426 grid points.
 ElSum from          density=       25.9999993304
 ElSum from atomic densities=       25.9999980130

 Hirshfeld populations at iteration   1 (CX, CA, CB, DipXYZ):
               1          2          3          4          5          6
     1  C    0.000000   3.047385   3.047385  -0.016229   0.014754   0.000000
     2  C    0.000000   3.026811   3.026811  -0.000001  -0.019495   0.000003
     3  H    0.000002   0.484189   0.484189   0.106593   0.081189  -0.000017
     4  H    0.000002   0.484951   0.484951   0.002872  -0.074345   0.108673
     5  H    0.000002   0.484951   0.484951   0.002855  -0.074367  -0.108658
     6  C    0.000000   3.047385   3.047385   0.016233   0.014751  -0.000003
     7  H    0.000001   0.485118   0.485118   0.000008   0.074737   0.106582
     8  H    0.000001   0.485118   0.485118  -0.000005   0.074713  -0.106599
     9  H    0.000002   0.484190   0.484190  -0.106594   0.081182   0.000006
    10  H    0.000002   0.484951   0.484951  -0.002880  -0.074361  -0.108663
    11  H    0.000002   0.484951   0.484951  -0.002859  -0.074347   0.108672
       Tot   0.000013  13.000000  13.000000  -0.000006   0.024411  -0.000003

 Dip from Atomic Chgs             -0.000002   0.011112  -0.000002
         Total Dipole             -0.000008   0.035523  -0.000005

 Hirshfeld charges, spin densities, dipoles, and CM5 charges using IRadAn=      5:
              Q-H        S-H        Dx         Dy         Dz        Q-CM5   
     1  C   -0.094770   0.000000  -0.016229   0.014754   0.000000  -0.241072
     2  C   -0.053622   0.000000  -0.000001  -0.019495   0.000003  -0.164134
     3  H    0.031621   0.000000   0.106593   0.081189  -0.000017   0.081018
     4  H    0.030098   0.000000   0.002872  -0.074345   0.108673   0.079940
     5  H    0.030098   0.000000   0.002855  -0.074367  -0.108658   0.079940
     6  C   -0.094770   0.000000   0.016233   0.014751  -0.000003  -0.241071
     7  H    0.029765   0.000000   0.000008   0.074737   0.106582   0.082241
     8  H    0.029765   0.000000  -0.000005   0.074713  -0.106599   0.082241
     9  H    0.031620   0.000000  -0.106594   0.081182   0.000006   0.081016
    10  H    0.030098   0.000000  -0.002880  -0.074361  -0.108663   0.079941
    11  H    0.030098   0.000000  -0.002859  -0.074347   0.108672   0.079941
       Tot   0.000001   0.000000  -0.000006   0.024411  -0.000003   0.000001
 Hirshfeld charges with hydrogens summed into heavy atoms:
              Q-H       Q-CM5   
     1  C   -0.002953  -0.000173
     2  C    0.005908   0.000347
     6  C   -0.002954  -0.000173
 
 EQQ=  0.00000000000     EQD=  0.00000000000     EDD=-0.170508123915E-02
 EQQ+QD+DD=-0.170508123915E-02
 
 Calling FoFJK, ICntrl=      2527 FMM=F ISym2X=0 I1Cent= 0 IOpClX= 0 NMat=1 NMatS=1 NMatT=0.
 ***** Axes restored to original set *****
 -------------------------------------------------------------------
 Center     Atomic                   Forces (Hartrees/Bohr)
 Number     Number              X              Y              Z
 -------------------------------------------------------------------
      1        6          -0.000057629   -0.000176799    0.000000379
      2        6          -0.000009606    0.000468782    0.000000009
      3        1          -0.000304777    0.000232567   -0.000000146
      4        1           0.000075015   -0.000170574   -0.000361917
      5        1           0.000074931   -0.000171033    0.000361726
      6        6           0.000076142   -0.000177299   -0.000000409
      7        1           0.000000399    0.000053079   -0.000327276
      8        1           0.000001068    0.000053880    0.000327180
      9        1           0.000299927    0.000232542    0.000000442
     10        1          -0.000077577   -0.000172808    0.000361364
     11        1          -0.000077892   -0.000172337   -0.000361350
 -------------------------------------------------------------------
 Cartesian Forces:  Max     0.000468782 RMS     0.000210826

 GradGradGradGradGradGradGradGradGradGradGradGradGradGradGradGradGradGrad
 Berny optimization.
 FormGI is forming the generalized inverse of G from B-inverse, IUseBI=4.
 Internal  Forces:  Max     0.000390107 RMS     0.000187421
 Search for a local minimum.
 Step number   1 out of a maximum of   56 on scan point     1 out of    36
 All quantities printed in internal units (Hartrees-Bohrs-Radians)
 Mixed Optimization -- En-DIIS/RFO-DIIS
 Second derivative matrix not updated -- first step.
 ITU=  0
     Eigenvalues ---    0.00330   0.01576   0.04274   0.04786   0.05401
     Eigenvalues ---    0.05482   0.05482   0.08386   0.11650   0.16000
     Eigenvalues ---    0.16000   0.16000   0.16000   0.16000   0.16000
     Eigenvalues ---    0.21887   0.29151   0.29153   0.32961   0.32961
     Eigenvalues ---    0.33138   0.33138   0.33138   0.33138   0.33268
     Eigenvalues ---    0.332691000.000001000.000001000.000001000.00000
     Eigenvalues --- 1000.000001000.000001000.000001000.000001000.00000
     Eigenvalues --- 1000.000001000.000001000.000001000.000001000.00000
     Eigenvalues --- 1000.000001000.000001000.000001000.000001000.00000
     Eigenvalues --- 1000.00000
 RFO step:  Lambda=-6.54831313D-06 EMin= 3.30147667D-03
 Linear search not attempted -- first point.
 Iteration  1 RMS(Cart)=  0.00143318 RMS(Int)=  0.00000126
 Iteration  2 RMS(Cart)=  0.00000195 RMS(Int)=  0.00000030
 Iteration  3 RMS(Cart)=  0.00000000 RMS(Int)=  0.00000030
 Iteration  1 RMS(Cart)=  0.00000000 RMS(Int)=  0.00000000
 Variable       Old X    -DE/DX   Delta X   Delta X   Delta X     New X
                                 (Linear)    (Quad)   (Total)
    R1        2.89689   0.00034   0.00000   0.00115   0.00115   2.89804
    R2        2.08582   0.00038   0.00000   0.00115   0.00115   2.08697
    R3        2.08810   0.00039   0.00000   0.00117   0.00117   2.08928
    R4        2.08810   0.00039   0.00000   0.00118   0.00118   2.08928
    R5        2.89685   0.00034   0.00000   0.00118   0.00118   2.89803
    R6        2.09120   0.00029   0.00000   0.00089   0.00089   2.09209
    R7        2.09120   0.00029   0.00000   0.00089   0.00089   2.09209
    R8        2.08584   0.00038   0.00000   0.00114   0.00114   2.08698
    R9        2.08810   0.00039   0.00000   0.00118   0.00118   2.08928
   R10        2.08810   0.00039   0.00000   0.00118   0.00118   2.08928
    A1        1.94930   0.00003   0.00000   0.00022   0.00022   1.94952
    A2        1.93949  -0.00014   0.00000  -0.00088  -0.00088   1.93861
    A3        1.93949  -0.00014   0.00000  -0.00087  -0.00087   1.93861
    A4        1.87926   0.00006   0.00000   0.00042   0.00042   1.87968
    A5        1.87926   0.00006   0.00000   0.00042   0.00042   1.87968
    A6        1.87376   0.00014   0.00000   0.00079   0.00078   1.87455
    A7        1.97055  -0.00033   0.00000  -0.00202  -0.00202   1.96853
    A8        1.91015   0.00008   0.00000   0.00008   0.00008   1.91023
    A9        1.91014   0.00008   0.00000   0.00009   0.00009   1.91023
   A10        1.91016   0.00008   0.00000   0.00008   0.00008   1.91024
   A11        1.91016   0.00008   0.00000   0.00008   0.00008   1.91024
   A12        1.84871   0.00003   0.00000   0.00195   0.00195   1.85066
   A13        1.94932   0.00003   0.00000   0.00022   0.00022   1.94953
   A14        1.93951  -0.00014   0.00000  -0.00089  -0.00089   1.93862
   A15        1.93951  -0.00014   0.00000  -0.00089  -0.00089   1.93862
   A16        1.87922   0.00006   0.00000   0.00045   0.00045   1.87967
   A17        1.87922   0.00007   0.00000   0.00045   0.00045   1.87967
   A18        1.87378   0.00014   0.00000   0.00077   0.00077   1.87455
    D1        3.14159   0.00000   0.00000   0.00000  -0.00000   3.14159
    D2       -1.00939  -0.00006   0.00000  -0.00122  -0.00122  -1.01061
    D3        1.00939   0.00006   0.00000   0.00122   0.00122   1.01061
    D4       -1.04268   0.00000   0.00000   0.00008   0.00008  -1.04260
    D5        1.08953  -0.00006   0.00000  -0.00114  -0.00114   1.08839
    D6        3.10830   0.00007   0.00000   0.00130   0.00130   3.10960
    D7        1.04269  -0.00000   0.00000  -0.00009  -0.00009   1.04259
    D8       -3.10829  -0.00007   0.00000  -0.00131  -0.00131  -3.10960
    D9       -1.08952   0.00006   0.00000   0.00113   0.00113  -1.08839
   D10        3.14154   0.00000   0.00000   0.00004   0.00004   3.14158
   D11       -1.04276   0.00001   0.00000   0.00014   0.00014  -1.04262
   D12        1.04266  -0.00001   0.00000  -0.00007  -0.00007   1.04259
   D13        1.00934   0.00006   0.00000   0.00126   0.00126   1.01060
   D14        3.10823   0.00007   0.00000   0.00136   0.00136   3.10959
   D15       -1.08954   0.00006   0.00000   0.00115   0.00115  -1.08839
   D16       -1.00946  -0.00006   0.00000  -0.00117  -0.00117  -1.01063
   D17        1.08943  -0.00006   0.00000  -0.00107  -0.00107   1.08836
   D18       -3.10834  -0.00007   0.00000  -0.00128  -0.00128  -3.10962
         Item               Value     Threshold  Converged?
 Maximum Force            0.000390     0.000450     YES
 RMS     Force            0.000189     0.000300     YES
 Maximum Displacement     0.003598     0.001800     NO 
 RMS     Displacement     0.001434     0.001200     NO 
 Predicted change in Energy=-3.273763D-06
 GradGradGradGradGradGradGradGradGradGradGradGradGradGradGradGradGradGrad

                          Input orientation:                          
 ---------------------------------------------------------------------
 Center     Atomic      Atomic             Coordinates (Angstroms)
 Number     Number       Type             X           Y           Z
 ---------------------------------------------------------------------
      1          6           0       -1.277259   -0.260056    0.000070
      2          6           0        0.000005    0.588741    0.000057
      3          1           0       -2.185276    0.368560    0.000201
      4          1           0       -1.320664   -0.913033   -0.891044
      5          1           0       -1.320528   -0.913208    0.891062
      6          6           0        1.277259   -0.260056   -0.000119
      7          1           0       -0.000065    1.254818   -0.884239
      8          1           0        0.000064    1.254645    0.884484
      9          1           0        2.185285    0.368551   -0.000139
     10          1           0        1.320676   -0.913197    0.890875
     11          1           0        1.320532   -0.913044   -0.891232
 ---------------------------------------------------------------------
                    Distance matrix (angstroms):
                    1          2          3          4          5
     1  C    0.000000
     2  C    1.533578   0.000000
     3  H    1.104379   2.196345   0.000000
     4  H    1.105598   2.189418   1.784476   0.000000
     5  H    1.105598   2.189417   1.784476   1.782106   0.000000
     6  C    2.554518   1.533570   3.519135   2.823000   2.822996
     7  H    2.169809   1.107085   2.518499   2.538426   3.097685
     8  H    2.169807   1.107086   2.518495   3.097685   2.538423
     9  H    3.519142   2.196346   4.370562   3.837688   3.837691
    10  H    2.823012   2.189417   3.837695   3.186206   2.641204
    11  H    2.823000   2.189417   3.837689   2.641196   3.186184
                    6          7          8          9         10
     6  C    0.000000
     7  H    2.169809   0.000000
     8  H    2.169808   1.768724   0.000000
     9  H    1.104382   2.518503   2.518513   0.000000
    10  H    1.105598   3.097689   2.538423   1.784470   0.000000
    11  H    1.105598   2.538435   3.097689   1.784469   1.782106
                   11
    11  H    0.000000
 Stoichiometry    C3H8
 Framework group  C1[X(C3H8)]
 Deg. of freedom    27
 Full point group                 C1      NOp   1
 Largest Abelian subgroup         C1      NOp   1
 Largest concise Abelian subgroup C1      NOp   1
                         Standard orientation:                         
 ---------------------------------------------------------------------
 Center     Atomic      Atomic             Coordinates (Angstroms)
 Number     Number       Type             X           Y           Z
 ---------------------------------------------------------------------
      1          6           0        1.277261   -0.260282   -0.000069
      2          6           0       -0.000002    0.588516   -0.000056
      3          1           0        2.185279    0.368333   -0.000200
      4          1           0        1.320665   -0.913260    0.891045
      5          1           0        1.320529   -0.913435   -0.891061
      6          6           0       -1.277257   -0.260281    0.000119
      7          1           0        0.000068    1.254593    0.884240
      8          1           0       -0.000062    1.254419   -0.884484
      9          1           0       -2.185283    0.368327    0.000140
     10          1           0       -1.320675   -0.913422   -0.890874
     11          1           0       -1.320531   -0.913269    0.891232
 ---------------------------------------------------------------------
 Rotational constants (GHZ):          29.1047020           8.3414137           7.3889564
 Standard basis: 6-31+G(d) (6D, 7F)
 There are    73 symmetry adapted cartesian basis functions of A   symmetry.
 There are    73 symmetry adapted basis functions of A   symmetry.
    73 basis functions,   128 primitive gaussians,    73 cartesian basis functions
    13 alpha electrons       13 beta electrons
       nuclear repulsion energy        81.9658615417 Hartrees.
 NAtoms=   11 NActive=   11 NUniq=   11 SFac= 1.00D+00 NAtFMM=   60 NAOKFM=F Big=F
 Integral buffers will be    131072 words long.
 Raffenetti 2 integral format.
 Two-electron integral symmetry is turned on.
 Nuclear repulsion after empirical dispersion term =       81.9598468252 Hartrees.
 One-electron integrals computed using PRISM.
 NBasis=    73 RedAO= T EigKep=  2.21D-04  NBF=    73
 NBsUse=    73 1.00D-06 EigRej= -1.00D+00 NBFU=    73
 Initial guess from the checkpoint file:  "CC_H8C3_0_1_PBEPBE-GD3BJ_6-31+G-D_d91b46644317dee9c2b868166c66a18c~1.chk"
 B after Tr=    -0.000000   -0.000000    0.000000
         Rot=    1.000000   -0.000001   -0.000001    0.000001 Ang=  -0.00 deg.
 Keep J ints in memory in canonical form, NReq=25192566.
 Requested convergence on RMS density matrix=1.00D-08 within 128 cycles.
 Requested convergence on MAX density matrix=1.00D-06.
 Requested convergence on             energy=1.00D-06.
 No special actions if energy rises.
 SCF Done:  E(RPBE-PBE) =  -118.965911887     A.U. after    8 cycles
            NFock=  8  Conv=0.57D-09     -V/T= 2.0113
 Calling FoFJK, ICntrl=      2527 FMM=F ISym2X=0 I1Cent= 0 IOpClX= 0 NMat=1 NMatS=1 NMatT=0.
 ***** Axes restored to original set *****
 -------------------------------------------------------------------
 Center     Atomic                   Forces (Hartrees/Bohr)
 Number     Number              X              Y              Z
 -------------------------------------------------------------------
      1        6          -0.000101681   -0.000112119    0.000000168
      2        6          -0.000003311    0.000239365    0.000000288
      3        1           0.000000409   -0.000009315   -0.000000048
      4        1           0.000025623    0.000024449   -0.000001314
      5        1           0.000025592    0.000024471    0.000001179
      6        6           0.000107653   -0.000113119   -0.000000272
      7        1           0.000000374   -0.000046700    0.000008407
      8        1           0.000000491   -0.000046564   -0.000008585
      9        1          -0.000001937   -0.000009063    0.000000113
     10        1          -0.000026616    0.000024256    0.000001139
     11        1          -0.000026597    0.000024338   -0.000001076
 -------------------------------------------------------------------
 Cartesian Forces:  Max     0.000239365 RMS     0.000058873

 GradGradGradGradGradGradGradGradGradGradGradGradGradGradGradGradGradGrad
 Berny optimization.
 Using GEDIIS/GDIIS optimizer.
 FormGI is forming the generalized inverse of G from B-inverse, IUseBI=4.
 Internal  Forces:  Max     0.000108607 RMS     0.000032067
 Search for a local minimum.
 Step number   2 out of a maximum of   56 on scan point     1 out of    36
 All quantities printed in internal units (Hartrees-Bohrs-Radians)
 Mixed Optimization -- En-DIIS/RFO-DIIS
 Swapping is turned off.
 Update second derivatives using D2CorX and points    1    2
 DE= -3.65D-06 DEPred=-3.27D-06 R= 1.12D+00
 TightC=F SS=  1.41D+00  RLast= 6.60D-03 DXNew= 5.0454D-01 1.9787D-02
 Trust test= 1.12D+00 RLast= 6.60D-03 DXMaxT set to 3.00D-01
 ITU=  1  0
     Eigenvalues ---    0.00330   0.01580   0.04282   0.04425   0.05404
     Eigenvalues ---    0.05485   0.05490   0.08362   0.11632   0.14842
     Eigenvalues ---    0.16000   0.16000   0.16000   0.16000   0.16026
     Eigenvalues ---    0.20827   0.28120   0.29152   0.32961   0.32966
     Eigenvalues ---    0.33138   0.33138   0.33138   0.33227   0.33268
     Eigenvalues ---    0.372501000.000001000.000001000.000001000.00000
     Eigenvalues --- 1000.000001000.000001000.000001000.000001000.00000
     Eigenvalues --- 1000.000001000.000001000.000001000.000001000.00000
     Eigenvalues --- 1000.000001000.000001000.000001000.000001000.00000
     Eigenvalues --- 1000.00000
 En-DIIS/RFO-DIIS/Sim-DIIS IScMMF=       -3 using points:     2    1
 RFO step:  Lambda=-3.31494623D-07.
 DidBck=F Rises=F RFO-DIIS coefs:    1.25297   -0.25297
 Iteration  1 RMS(Cart)=  0.00055177 RMS(Int)=  0.00000022
 Iteration  2 RMS(Cart)=  0.00000024 RMS(Int)=  0.00000011
 Iteration  1 RMS(Cart)=  0.00000000 RMS(Int)=  0.00000000
 Variable       Old X    -DE/DX   Delta X   Delta X   Delta X     New X
                                 (Linear)    (Quad)   (Total)
    R1        2.89804   0.00008   0.00029   0.00007   0.00036   2.89840
    R2        2.08697  -0.00001   0.00029  -0.00027   0.00002   2.08700
    R3        2.08928  -0.00001   0.00030  -0.00030  -0.00001   2.08927
    R4        2.08928  -0.00001   0.00030  -0.00031  -0.00001   2.08927
    R5        2.89803   0.00008   0.00030   0.00007   0.00037   2.89840
    R6        2.09209  -0.00003   0.00023  -0.00031  -0.00009   2.09200
    R7        2.09209  -0.00003   0.00023  -0.00031  -0.00009   2.09200
    R8        2.08698  -0.00001   0.00029  -0.00027   0.00002   2.08700
    R9        2.08928  -0.00001   0.00030  -0.00031  -0.00001   2.08927
   R10        2.08928  -0.00001   0.00030  -0.00031  -0.00001   2.08927
    A1        1.94952   0.00003   0.00006   0.00017   0.00023   1.94975
    A2        1.93861  -0.00004  -0.00022  -0.00011  -0.00034   1.93828
    A3        1.93861  -0.00004  -0.00022  -0.00011  -0.00034   1.93828
    A4        1.87968   0.00001   0.00011   0.00001   0.00012   1.87980
    A5        1.87968   0.00001   0.00011   0.00001   0.00012   1.87980
    A6        1.87455   0.00004   0.00020   0.00004   0.00024   1.87478
    A7        1.96853  -0.00011  -0.00051  -0.00027  -0.00078   1.96775
    A8        1.91023   0.00003   0.00002   0.00006   0.00008   1.91030
    A9        1.91023   0.00003   0.00002   0.00006   0.00008   1.91030
   A10        1.91024   0.00003   0.00002   0.00005   0.00007   1.91031
   A11        1.91024   0.00003   0.00002   0.00005   0.00007   1.91031
   A12        1.85066   0.00000   0.00049   0.00008   0.00057   1.85123
   A13        1.94953   0.00003   0.00005   0.00017   0.00022   1.94975
   A14        1.93862  -0.00004  -0.00023  -0.00012  -0.00034   1.93828
   A15        1.93862  -0.00004  -0.00023  -0.00012  -0.00034   1.93828
   A16        1.87967   0.00001   0.00011   0.00001   0.00013   1.87979
   A17        1.87967   0.00001   0.00011   0.00001   0.00013   1.87979
   A18        1.87455   0.00004   0.00019   0.00004   0.00024   1.87478
    D1        3.14159   0.00000  -0.00000   0.00000  -0.00000   3.14159
    D2       -1.01061  -0.00002  -0.00031  -0.00008  -0.00039  -1.01100
    D3        1.01061   0.00002   0.00031   0.00008   0.00038   1.01099
    D4       -1.04260   0.00000   0.00002   0.00005   0.00007  -1.04253
    D5        1.08839  -0.00001  -0.00029  -0.00003  -0.00032   1.08807
    D6        3.10960   0.00002   0.00033   0.00013   0.00046   3.11006
    D7        1.04259  -0.00000  -0.00002  -0.00005  -0.00007   1.04252
    D8       -3.10960  -0.00002  -0.00033  -0.00013  -0.00046  -3.11006
    D9       -1.08839   0.00001   0.00028   0.00003   0.00031  -1.08808
   D10        3.14158   0.00000   0.00001   0.00000   0.00001   3.14159
   D11       -1.04262   0.00000   0.00004   0.00005   0.00009  -1.04253
   D12        1.04259  -0.00000  -0.00002  -0.00005  -0.00007   1.04252
   D13        1.01060   0.00002   0.00032   0.00008   0.00040   1.01099
   D14        3.10959   0.00002   0.00034   0.00013   0.00047   3.11006
   D15       -1.08839   0.00001   0.00029   0.00003   0.00032  -1.08807
   D16       -1.01063  -0.00002  -0.00030  -0.00007  -0.00037  -1.01100
   D17        1.08836  -0.00001  -0.00027  -0.00002  -0.00029   1.08807
   D18       -3.10962  -0.00002  -0.00032  -0.00012  -0.00045  -3.11006
         Item               Value     Threshold  Converged?
 Maximum Force            0.000109     0.000450     YES
 RMS     Force            0.000032     0.000300     YES
 Maximum Displacement     0.001509     0.001800     YES
 RMS     Displacement     0.000552     0.001200     YES
 Predicted change in Energy=-1.657387D-07
 Optimization completed.
    -- Stationary point found.
                           ----------------------------
                           !   Optimized Parameters   !
                           ! (Angstroms and Degrees)  !
 --------------------------                            --------------------------
 ! Name  Definition              Value          Derivative Info.                !
 --------------------------------------------------------------------------------
 ! R1    R(1,2)                  1.5336         -DE/DX =    0.0001              !
 ! R2    R(1,3)                  1.1044         -DE/DX =    0.0                 !
 ! R3    R(1,4)                  1.1056         -DE/DX =    0.0                 !
 ! R4    R(1,5)                  1.1056         -DE/DX =    0.0                 !
 ! R5    R(2,6)                  1.5336         -DE/DX =    0.0001              !
 ! R6    R(2,7)                  1.1071         -DE/DX =    0.0                 !
 ! R7    R(2,8)                  1.1071         -DE/DX =    0.0                 !
 ! R8    R(6,9)                  1.1044         -DE/DX =    0.0                 !
 ! R9    R(6,10)                 1.1056         -DE/DX =    0.0                 !
 ! R10   R(6,11)                 1.1056         -DE/DX =    0.0                 !
 ! A1    A(2,1,3)              111.6995         -DE/DX =    0.0                 !
 ! A2    A(2,1,4)              111.0743         -DE/DX =    0.0                 !
 ! A3    A(2,1,5)              111.0742         -DE/DX =    0.0                 !
 ! A4    A(3,1,4)              107.6977         -DE/DX =    0.0                 !
 ! A5    A(3,1,5)              107.6977         -DE/DX =    0.0                 !
 ! A6    A(4,1,5)              107.4035         -DE/DX =    0.0                 !
 ! A7    A(1,2,6)              112.7883         -DE/DX =   -0.0001              !
 ! A8    A(1,2,7)              109.448          -DE/DX =    0.0                 !
 ! A9    A(1,2,8)              109.4479         -DE/DX =    0.0                 !
 ! A10   A(6,2,7)              109.4486         -DE/DX =    0.0                 !
 ! A11   A(6,2,8)              109.4485         -DE/DX =    0.0                 !
 ! A12   A(7,2,8)              106.0351         -DE/DX =    0.0                 !
 ! A13   A(2,6,9)              111.7            -DE/DX =    0.0                 !
 ! A14   A(2,6,10)             111.0748         -DE/DX =    0.0                 !
 ! A15   A(2,6,11)             111.0747         -DE/DX =    0.0                 !
 ! A16   A(9,6,10)             107.697          -DE/DX =    0.0                 !
 ! A17   A(9,6,11)             107.6969         -DE/DX =    0.0                 !
 ! A18   A(10,6,11)            107.4035         -DE/DX =    0.0                 !
 ! D1    D(3,1,2,6)            179.9998         -DE/DX =    0.0                 !
 ! D2    D(3,1,2,7)            -57.9037         -DE/DX =    0.0                 !
 ! D3    D(3,1,2,8)             57.9034         -DE/DX =    0.0                 !
 ! D4    D(4,1,2,6)            -59.7366         -DE/DX =    0.0                 !
 ! D5    D(4,1,2,7)             62.36           -DE/DX =    0.0                 !
 ! D6    D(4,1,2,8)            178.1671         -DE/DX =    0.0                 !
 ! D7    D(5,1,2,6)             59.7363         -DE/DX =    0.0                 !
 ! D8    D(5,1,2,7)           -178.1672         -DE/DX =    0.0                 !
 ! D9    D(5,1,2,8)            -62.3601         -DE/DX =    0.0                 !
 ! D10   D(1,2,6,9)            179.9992         -DE/DX =    0.0                 !
 ! D11   D(1,2,6,10)           -59.7375         -DE/DX =    0.0                 !
 ! D12   D(1,2,6,11)            59.736          -DE/DX =    0.0                 !
 ! D13   D(7,2,6,9)             57.903          -DE/DX =    0.0                 !
 ! D14   D(7,2,6,10)           178.1663         -DE/DX =    0.0                 !
 ! D15   D(7,2,6,11)           -62.3602         -DE/DX =    0.0                 !
 ! D16   D(8,2,6,9)            -57.9047         -DE/DX =    0.0                 !
 ! D17   D(8,2,6,10)            62.3586         -DE/DX =    0.0                 !
 ! D18   D(8,2,6,11)          -178.1679         -DE/DX =    0.0                 !
 --------------------------------------------------------------------------------
 Iteration  1 RMS(Cart)=  0.01818332 RMS(Int)=  0.02031527
 Iteration  2 RMS(Cart)=  0.00046045 RMS(Int)=  0.02031123
 Iteration  3 RMS(Cart)=  0.00000716 RMS(Int)=  0.02031123
 Iteration  4 RMS(Cart)=  0.00000021 RMS(Int)=  0.02031123
 Iteration  1 RMS(Cart)=  0.01132977 RMS(Int)=  0.01265267
 Iteration  2 RMS(Cart)=  0.00706215 RMS(Int)=  0.01405944
 Iteration  3 RMS(Cart)=  0.00440044 RMS(Int)=  0.01609623
 Iteration  4 RMS(Cart)=  0.00274122 RMS(Int)=  0.01766607
 Iteration  5 RMS(Cart)=  0.00170734 RMS(Int)=  0.01873012
 Iteration  6 RMS(Cart)=  0.00106328 RMS(Int)=  0.01942040
 Iteration  7 RMS(Cart)=  0.00066213 RMS(Int)=  0.01985977
 Iteration  8 RMS(Cart)=  0.00041231 RMS(Int)=  0.02013679
 Iteration  9 RMS(Cart)=  0.00025674 RMS(Int)=  0.02031056
 Iteration 10 RMS(Cart)=  0.00015986 RMS(Int)=  0.02041924
 Iteration 11 RMS(Cart)=  0.00009954 RMS(Int)=  0.02048709
 Iteration 12 RMS(Cart)=  0.00006198 RMS(Int)=  0.02052941
 Iteration 13 RMS(Cart)=  0.00003859 RMS(Int)=  0.02055579
 Iteration 14 RMS(Cart)=  0.00002403 RMS(Int)=  0.02057222
 Iteration 15 RMS(Cart)=  0.00001496 RMS(Int)=  0.02058246
 Iteration 16 RMS(Cart)=  0.00000932 RMS(Int)=  0.02058884
 Iteration 17 RMS(Cart)=  0.00000580 RMS(Int)=  0.02059281
 Iteration 18 RMS(Cart)=  0.00000361 RMS(Int)=  0.02059528
 Iteration 19 RMS(Cart)=  0.00000225 RMS(Int)=  0.02059682
 Iteration 20 RMS(Cart)=  0.00000140 RMS(Int)=  0.02059778
 Iteration 21 RMS(Cart)=  0.00000087 RMS(Int)=  0.02059838
 GradGradGradGradGradGradGradGradGradGradGradGradGradGradGradGradGradGrad

                          Input orientation:                          
 ---------------------------------------------------------------------
 Center     Atomic      Atomic             Coordinates (Angstroms)
 Number     Number       Type             X           Y           Z
 ---------------------------------------------------------------------
      1          6           0       -1.276974   -0.258490    0.035069
      2          6           0        0.000405    0.590430    0.044331
      3          1           0       -2.181224    0.362090   -0.101237
      4          1           0       -1.268530   -0.914610   -0.854881
      5          1           0       -1.369777   -0.909162    0.924214
      6          6           0        1.275612   -0.259975   -0.013972
      7          1           0        0.025003    1.232496   -0.857230
      8          1           0       -0.023696    1.278580    0.911240
      9          1           0        2.184379    0.367228   -0.035912
     10          1           0        1.348688   -0.927091    0.864702
     11          1           0        1.286141   -0.898777   -0.916348
 ---------------------------------------------------------------------
                    Distance matrix (angstroms):
                    1          2          3          4          5
     1  C    0.000000
     2  C    1.533770   0.000000
     3  H    1.105154   2.198371   0.000000
     4  H    1.105702   2.164238   1.740963   0.000000
     5  H    1.105697   2.213678   1.823754   1.781982   0.000000
     6  C    2.553058   1.533865   3.513445   2.758321   2.880923
     7  H    2.171263   1.107098   2.489291   2.506651   3.115390
     8  H    2.168171   1.107096   2.553427   3.078778   2.568719
     9  H    3.518171   2.196816   4.366095   3.773115   3.896542
    10  H    2.833623   2.189462   3.880116   3.131605   2.719175
    11  H    2.807974   2.189465   3.778466   2.555459   3.231358
                    6          7          8          9         10
     6  C    0.000000
     7  H    2.121928   0.000000
     8  H    2.216161   1.769740   0.000000
     9  H    1.104411   2.467014   2.569680   0.000000
    10  H    1.105646   3.062843   2.598190   1.784586   0.000000
    11  H    1.105649   2.477153   3.129957   1.784592   1.782373
                   11
    11  H    0.000000
 Stoichiometry    C3H8
 Framework group  C1[X(C3H8)]
 Deg. of freedom    27
 Full point group                 C1      NOp   1
 Largest Abelian subgroup         C1      NOp   1
 Largest concise Abelian subgroup C1      NOp   1
                         Standard orientation:                         
 ---------------------------------------------------------------------
 Center     Atomic      Atomic             Coordinates (Angstroms)
 Number     Number       Type             X           Y           Z
 ---------------------------------------------------------------------
      1          6           0        1.277006   -0.259040   -0.011057
      2          6           0       -0.000159    0.590249   -0.014103
      3          1           0        2.179056    0.356851    0.157319
      4          1           0        1.255245   -0.941486    0.858638
      5          1           0        1.383209   -0.882856   -0.917776
      6          6           0       -1.276029   -0.261049   -0.000427
      7          1           0       -0.038350    1.205067    0.905793
      8          1           0        0.036909    1.304016   -0.859576
      9          1           0       -2.185074    0.365553    0.026615
     10          1           0       -1.335842   -0.901554   -0.899664
     11          1           0       -1.300062   -0.926555    0.882174
 ---------------------------------------------------------------------
 Rotational constants (GHZ):          29.0519728           8.3508108           7.3961801
 Standard basis: 6-31+G(d) (6D, 7F)
 There are    73 symmetry adapted cartesian basis functions of A   symmetry.
 There are    73 symmetry adapted basis functions of A   symmetry.
    73 basis functions,   128 primitive gaussians,    73 cartesian basis functions
    13 alpha electrons       13 beta electrons
       nuclear repulsion energy        81.9763317301 Hartrees.
 NAtoms=   11 NActive=   11 NUniq=   11 SFac= 1.00D+00 NAtFMM=   60 NAOKFM=F Big=F
 Integral buffers will be    131072 words long.
 Raffenetti 2 integral format.
 Two-electron integral symmetry is turned on.
 Nuclear repulsion after empirical dispersion term =       81.9703149363 Hartrees.
 One-electron integrals computed using PRISM.
 NBasis=    73 RedAO= T EigKep=  2.23D-04  NBF=    73
 NBsUse=    73 1.00D-06 EigRej= -1.00D+00 NBFU=    73
 Initial guess from the checkpoint file:  "CC_H8C3_0_1_PBEPBE-GD3BJ_6-31+G-D_d91b46644317dee9c2b868166c66a18c~1.chk"
 B after Tr=    -0.000000    0.000000    0.000000
         Rot=    0.999928   -0.011378    0.003688   -0.000107 Ang=  -1.37 deg.
 Keep J ints in memory in canonical form, NReq=25192566.
 Requested convergence on RMS density matrix=1.00D-08 within 128 cycles.
 Requested convergence on MAX density matrix=1.00D-06.
 Requested convergence on             energy=1.00D-06.
 No special actions if energy rises.
 SCF Done:  E(RPBE-PBE) =  -118.964457808     A.U. after    9 cycles
            NFock=  9  Conv=0.51D-08     -V/T= 2.0113
 Calling FoFJK, ICntrl=      2527 FMM=F ISym2X=0 I1Cent= 0 IOpClX= 0 NMat=1 NMatS=1 NMatT=0.
 ***** Axes restored to original set *****
 -------------------------------------------------------------------
 Center     Atomic                   Forces (Hartrees/Bohr)
 Number     Number              X              Y              Z
 -------------------------------------------------------------------
      1        6           0.000048508   -0.000474814   -0.011425996
      2        6          -0.000439259    0.000178284   -0.005921687
      3        1          -0.000293199    0.000497327    0.007228173
      4        1           0.001312279   -0.003554740    0.000671643
      5        1          -0.001116936    0.003234633    0.000301658
      6        6           0.000567844   -0.000279014    0.007393181
      7        1          -0.004592100    0.002295923    0.000715236
      8        1           0.004492595   -0.001922576    0.000720866
      9        1          -0.000000069   -0.000012701    0.000205757
     10        1           0.000965318   -0.000661699   -0.000033742
     11        1          -0.000944982    0.000699378    0.000144910
 -------------------------------------------------------------------
 Cartesian Forces:  Max     0.011425996 RMS     0.003277140

 GradGradGradGradGradGradGradGradGradGradGradGradGradGradGradGradGradGrad
 Berny optimization.
 FormGI is forming the generalized inverse of G from B-inverse, IUseBI=4.
 Internal  Forces:  Max     0.006286851 RMS     0.002064147
 Search for a local minimum.
 Step number   1 out of a maximum of   56 on scan point     2 out of    36
 All quantities printed in internal units (Hartrees-Bohrs-Radians)
 Mixed Optimization -- RFO/linear search
 Second derivative matrix not updated -- first step.
 ITU=  0
     Eigenvalues ---    0.00330   0.01568   0.04106   0.04539   0.05403
     Eigenvalues ---    0.05490   0.05537   0.08332   0.11637   0.14841
     Eigenvalues ---    0.16000   0.16000   0.16000   0.16000   0.16026
     Eigenvalues ---    0.20815   0.28120   0.29152   0.32961   0.32966
     Eigenvalues ---    0.33138   0.33138   0.33138   0.33227   0.33268
     Eigenvalues ---    0.372511000.000001000.000001000.000001000.00000
     Eigenvalues --- 1000.000001000.000001000.000001000.000001000.00000
     Eigenvalues --- 1000.000001000.000001000.000001000.000001000.00000
     Eigenvalues --- 1000.000001000.000001000.000001000.000001000.00000
     Eigenvalues --- 1000.00000
 RFO step:  Lambda=-1.97274111D-03 EMin= 3.30146499D-03
 Linear search not attempted -- first point.
 Iteration  1 RMS(Cart)=  0.03669150 RMS(Int)=  0.00124389
 Iteration  2 RMS(Cart)=  0.00115211 RMS(Int)=  0.00028821
 Iteration  3 RMS(Cart)=  0.00000069 RMS(Int)=  0.00028821
 Iteration  1 RMS(Cart)=  0.00000505 RMS(Int)=  0.00000564
 Iteration  2 RMS(Cart)=  0.00000315 RMS(Int)=  0.00000627
 Iteration  3 RMS(Cart)=  0.00000196 RMS(Int)=  0.00000718
 Iteration  4 RMS(Cart)=  0.00000122 RMS(Int)=  0.00000788
 Iteration  5 RMS(Cart)=  0.00000076 RMS(Int)=  0.00000835
 Variable       Old X    -DE/DX   Delta X   Delta X   Delta X     New X
                                 (Linear)    (Quad)   (Total)
    R1        2.89840   0.00023   0.00000   0.00057   0.00057   2.89897
    R2        2.08844  -0.00037   0.00000  -0.00128  -0.00128   2.08716
    R3        2.08947   0.00158   0.00000   0.00457   0.00457   2.09405
    R4        2.08946  -0.00157   0.00000  -0.00486  -0.00486   2.08460
    R5        2.89858   0.00034   0.00000   0.00094   0.00094   2.89952
    R6        2.09211   0.00065   0.00000   0.00184   0.00184   2.09395
    R7        2.09211  -0.00073   0.00000  -0.00231  -0.00231   2.08980
    R8        2.08703  -0.00001   0.00000  -0.00020  -0.00020   2.08684
    R9        2.08937   0.00044   0.00000   0.00114   0.00114   2.09051
   R10        2.08937  -0.00053   0.00000  -0.00176  -0.00176   2.08762
    A1        1.95129   0.00006   0.00000  -0.00129  -0.00199   1.94930
    A2        1.90386   0.00211   0.00000   0.02529   0.02514   1.92899
    A3        1.97225  -0.00203   0.00000  -0.02343  -0.02375   1.94850
    A4        1.81336   0.00288   0.00000   0.04041   0.03990   1.85326
    A5        1.94009  -0.00232   0.00000  -0.03441  -0.03519   1.90490
    A6        1.87411  -0.00015   0.00000   0.00067   0.00088   1.87499
    A7        1.96633   0.00033   0.00000   0.00173   0.00135   1.96768
    A8        1.91196  -0.00307   0.00000  -0.01132  -0.01183   1.90013
    A9        1.90777   0.00308   0.00000   0.01045   0.00997   1.91774
   A10        1.84638   0.00511   0.00000   0.05100   0.05125   1.89764
   A11        1.97412  -0.00531   0.00000  -0.04907  -0.04885   1.92527
   A12        1.85216  -0.00019   0.00000  -0.00138  -0.00072   1.85144
   A13        1.94979  -0.00000   0.00000  -0.00006  -0.00010   1.94970
   A14        1.93827   0.00189   0.00000   0.01337   0.01338   1.95165
   A15        1.93827  -0.00185   0.00000  -0.01285  -0.01285   1.92543
   A16        1.87975  -0.00069   0.00000  -0.00145  -0.00149   1.87826
   A17        1.87975   0.00068   0.00000   0.00121   0.00118   1.88093
   A18        1.87483  -0.00002   0.00000  -0.00025  -0.00020   1.87463
    D1       -2.96707  -0.00629   0.00000   0.00000   0.00001  -2.96706
    D2       -0.91697  -0.00173   0.00000   0.05725   0.05721  -0.85976
    D3        1.10563  -0.00194   0.00000   0.05514   0.05525   1.16088
    D4       -0.97150  -0.00150   0.00000   0.06340   0.06357  -0.90793
    D5        1.07859   0.00306   0.00000   0.12065   0.12077   1.19937
    D6        3.10120   0.00284   0.00000   0.11853   0.11881  -3.06318
    D7        1.11162  -0.00155   0.00000   0.06659   0.06632   1.17794
    D8       -3.12147   0.00301   0.00000   0.12384   0.12352  -2.99795
    D9       -1.09887   0.00280   0.00000   0.12173   0.12156  -0.97731
   D10        3.11291  -0.00038   0.00000   0.01833   0.01834   3.13125
   D11       -1.07124   0.00003   0.00000   0.02561   0.02564  -1.04560
   D12        1.01387   0.00003   0.00000   0.02564   0.02563   1.03950
   D13        1.02443  -0.00009   0.00000  -0.00154  -0.00190   1.02253
   D14        3.12347   0.00032   0.00000   0.00574   0.00540   3.12887
   D15       -1.07461   0.00032   0.00000   0.00577   0.00539  -1.06922
   D16       -0.99574  -0.00021   0.00000  -0.00549  -0.00514  -1.00088
   D17        1.10330   0.00020   0.00000   0.00179   0.00216   1.10546
   D18       -3.09478   0.00020   0.00000   0.00182   0.00215  -3.09263
         Item               Value     Threshold  Converged?
 Maximum Force            0.003032     0.000450     NO 
 RMS     Force            0.001424     0.000300     NO 
 Maximum Displacement     0.119478     0.001800     NO 
 RMS     Displacement     0.036692     0.001200     NO 
 Predicted change in Energy=-1.068055D-03
 GradGradGradGradGradGradGradGradGradGradGradGradGradGradGradGradGradGrad

                          Input orientation:                          
 ---------------------------------------------------------------------
 Center     Atomic      Atomic             Coordinates (Angstroms)
 Number     Number       Type             X           Y           Z
 ---------------------------------------------------------------------
      1          6           0       -1.277313   -0.259753    0.016670
      2          6           0        0.000242    0.589366    0.031442
      3          1           0       -2.178826    0.361771   -0.127748
      4          1           0       -1.257685   -0.976461   -0.828242
      5          1           0       -1.386935   -0.845937    0.944705
      6          6           0        1.277350   -0.259786   -0.015486
      7          1           0       -0.009261    1.266368   -0.845712
      8          1           0        0.006730    1.243436    0.923129
      9          1           0        2.185705    0.368215   -0.014721
     10          1           0        1.345465   -0.948087    0.847876
     11          1           0        1.294557   -0.876411   -0.931937
 ---------------------------------------------------------------------
                    Distance matrix (angstroms):
                    1          2          3          4          5
     1  C    0.000000
     2  C    1.534069   0.000000
     3  H    1.104479   2.196697   0.000000
     4  H    1.108121   2.184777   1.769198   0.000000
     5  H    1.103122   2.195087   1.798835   1.782438   0.000000
     6  C    2.554866   1.534362   3.513416   2.756918   2.892050
     7  H    2.163493   1.108071   2.457800   2.566934   3.092800
     8  H    2.174859   1.105873   2.580374   3.097416   2.511623
     9  H    3.519634   2.197108   4.365999   3.785090   3.893381
    10  H    2.836137   2.199989   3.884353   3.096218   2.736023
    11  H    2.809740   2.179874   3.774150   2.556306   3.273089
                    6          7          8          9         10
     6  C    0.000000
     7  H    2.161894   0.000000
     8  H    2.180631   1.769061   0.000000
     9  H    1.104307   2.512986   2.528538   0.000000
    10  H    1.106252   3.099570   2.569173   1.784020   0.000000
    11  H    1.104719   2.509757   3.097341   1.784524   1.781982
                   11
    11  H    0.000000
 Stoichiometry    C3H8
 Framework group  C1[X(C3H8)]
 Deg. of freedom    27
 Full point group                 C1      NOp   1
 Largest Abelian subgroup         C1      NOp   1
 Largest concise Abelian subgroup C1      NOp   1
                         Standard orientation:                         
 ---------------------------------------------------------------------
 Center     Atomic      Atomic             Coordinates (Angstroms)
 Number     Number       Type             X           Y           Z
 ---------------------------------------------------------------------
      1          6           0        1.277440   -0.260001   -0.005674
      2          6           0       -0.000004    0.589414   -0.006281
      3          1           0        2.177352    0.356392    0.167798
      4          1           0        1.249265   -1.003418    0.815587
      5          1           0        1.396617   -0.816161   -0.950852
      6          6           0       -1.277418   -0.260547    0.000350
      7          1           0        0.000447    1.237952    0.892173
      8          1           0        0.002543    1.271729   -0.876565
      9          1           0       -2.185796    0.367340    0.010428
     10          1           0       -1.336617   -0.920809   -0.885281
     11          1           0       -1.303916   -0.906225    0.896341
 ---------------------------------------------------------------------
 Rotational constants (GHZ):          29.0705568           8.3400654           7.3877957
 Standard basis: 6-31+G(d) (6D, 7F)
 There are    73 symmetry adapted cartesian basis functions of A   symmetry.
 There are    73 symmetry adapted basis functions of A   symmetry.
    73 basis functions,   128 primitive gaussians,    73 cartesian basis functions
    13 alpha electrons       13 beta electrons
       nuclear repulsion energy        81.9547807112 Hartrees.
 NAtoms=   11 NActive=   11 NUniq=   11 SFac= 1.00D+00 NAtFMM=   60 NAOKFM=F Big=F
 Integral buffers will be    131072 words long.
 Raffenetti 2 integral format.
 Two-electron integral symmetry is turned on.
 Nuclear repulsion after empirical dispersion term =       81.9487664480 Hartrees.
 One-electron integrals computed using PRISM.
 NBasis=    73 RedAO= T EigKep=  2.21D-04  NBF=    73
 NBsUse=    73 1.00D-06 EigRej= -1.00D+00 NBFU=    73
 Initial guess from the checkpoint file:  "CC_H8C3_0_1_PBEPBE-GD3BJ_6-31+G-D_d91b46644317dee9c2b868166c66a18c~1.chk"
 B after Tr=     0.000000    0.000000    0.000000
         Rot=    0.999998   -0.001476   -0.001081    0.000065 Ang=  -0.21 deg.
 ExpMin= 4.38D-02 ExpMax= 3.05D+03 ExpMxC= 4.57D+02 IAcc=3 IRadAn=         5 AccDes= 0.00D+00
 Harris functional with IExCor= 1009 and IRadAn=       5 diagonalized for initial guess.
 HarFok:  IExCor= 1009 AccDes= 0.00D+00 IRadAn=         5 IDoV= 1 UseB2=F ITyADJ=14
 ICtDFT=  3500011 ScaDFX=  1.000000  1.000000  1.000000  1.000000
 FoFCou: FMM=F IPFlag=           0 FMFlag=      100000 FMFlg1=           0
         NFxFlg=           0 DoJE=T BraDBF=F KetDBF=T FulRan=T
         wScrn=  0.000000 ICntrl=       500 IOpCl=  0 I1Cent=   200000004 NGrid=           0
         NMat0=    1 NMatS0=      1 NMatT0=    0 NMatD0=    1 NMtDS0=    0 NMtDT0=    0
 Petite list used in FoFCou.
 Keep J ints in memory in canonical form, NReq=25192566.
 Requested convergence on RMS density matrix=1.00D-08 within 128 cycles.
 Requested convergence on MAX density matrix=1.00D-06.
 Requested convergence on             energy=1.00D-06.
 No special actions if energy rises.
 SCF Done:  E(RPBE-PBE) =  -118.965548388     A.U. after    9 cycles
            NFock=  9  Conv=0.25D-08     -V/T= 2.0113
 Calling FoFJK, ICntrl=      2527 FMM=F ISym2X=0 I1Cent= 0 IOpClX= 0 NMat=1 NMatS=1 NMatT=0.
 ***** Axes restored to original set *****
 -------------------------------------------------------------------
 Center     Atomic                   Forces (Hartrees/Bohr)
 Number     Number              X              Y              Z
 -------------------------------------------------------------------
      1        6           0.000180849   -0.000573812   -0.004869131
      2        6          -0.000081786   -0.000079587   -0.002547236
      3        1          -0.000269443    0.000224951    0.003230995
      4        1           0.000707413    0.000100974    0.001161891
      5        1          -0.000862990   -0.000016407    0.000910380
      6        6          -0.000062618    0.000255324    0.001133113
      7        1           0.000221170    0.000085337    0.000669520
      8        1           0.000238974   -0.000058729    0.000581739
      9        1           0.000045261    0.000042540    0.000029525
     10        1          -0.000678483    0.000488361   -0.000069888
     11        1           0.000561652   -0.000468952   -0.000230907
 -------------------------------------------------------------------
 Cartesian Forces:  Max     0.004869131 RMS     0.001207582

 GradGradGradGradGradGradGradGradGradGradGradGradGradGradGradGradGradGrad
 Berny optimization.
 Using GEDIIS/GDIIS optimizer.
 FormGI is forming the generalized inverse of G from B-inverse, IUseBI=4.
 Internal  Forces:  Max     0.002013635 RMS     0.000649359
 Search for a local minimum.
 Step number   2 out of a maximum of   56 on scan point     2 out of    36
 All quantities printed in internal units (Hartrees-Bohrs-Radians)
 Mixed Optimization -- En-DIIS/RFO-DIIS
 Update second derivatives using D2CorX and points    1    2
 DE= -1.09D-03 DEPred=-1.07D-03 R= 1.02D+00
 TightC=F SS=  1.41D+00  RLast= 2.91D-01 DXNew= 5.0454D-01 8.7435D-01
 Trust test= 1.02D+00 RLast= 2.91D-01 DXMaxT set to 5.05D-01
 ITU=  1  0
 Use linear search instead of GDIIS.
     Eigenvalues ---    0.00330   0.01385   0.04175   0.04447   0.05397
     Eigenvalues ---    0.05491   0.05545   0.08366   0.11954   0.14842
     Eigenvalues ---    0.15994   0.16000   0.16000   0.16025   0.17071
     Eigenvalues ---    0.20825   0.28120   0.29169   0.32966   0.32985
     Eigenvalues ---    0.33136   0.33138   0.33226   0.33266   0.33778
     Eigenvalues ---    0.372491000.000001000.000001000.000001000.00000
     Eigenvalues --- 1000.000001000.000001000.000001000.000001000.00000
     Eigenvalues --- 1000.000001000.000001000.000001000.000001000.00000
     Eigenvalues --- 1000.000001000.000001000.000001000.000001000.00000
     Eigenvalues --- 1000.00000
 RFO step:  Lambda=-9.94464120D-05 EMin= 3.30112453D-03
 Quartic linear search produced a step of  0.11863.
 Iteration  1 RMS(Cart)=  0.01146393 RMS(Int)=  0.00011064
 Iteration  2 RMS(Cart)=  0.00009344 RMS(Int)=  0.00004649
 Iteration  3 RMS(Cart)=  0.00000000 RMS(Int)=  0.00004649
 Iteration  1 RMS(Cart)=  0.00000066 RMS(Int)=  0.00000074
 Variable       Old X    -DE/DX   Delta X   Delta X   Delta X     New X
                                 (Linear)    (Quad)   (Total)
    R1        2.89897   0.00035   0.00007   0.00123   0.00130   2.90027
    R2        2.08716  -0.00008  -0.00015  -0.00018  -0.00034   2.08683
    R3        2.09405  -0.00094   0.00054  -0.00355  -0.00300   2.09104
    R4        2.08460   0.00086  -0.00058   0.00325   0.00268   2.08727
    R5        2.89952  -0.00031   0.00011  -0.00133  -0.00122   2.89831
    R6        2.09395  -0.00048   0.00022  -0.00178  -0.00156   2.09239
    R7        2.08980   0.00044  -0.00027   0.00164   0.00137   2.09116
    R8        2.08684   0.00006  -0.00002   0.00019   0.00017   2.08701
    R9        2.09051  -0.00040   0.00014  -0.00146  -0.00133   2.08918
   R10        2.08762   0.00046  -0.00021   0.00167   0.00146   2.08908
    A1        1.94930   0.00012  -0.00024   0.00094   0.00059   1.94989
    A2        1.92899  -0.00009   0.00298  -0.00078   0.00217   1.93116
    A3        1.94850   0.00011  -0.00282   0.00085  -0.00202   1.94648
    A4        1.85326   0.00130   0.00473   0.00960   0.01424   1.86750
    A5        1.90490  -0.00136  -0.00417  -0.00971  -0.01401   1.89088
    A6        1.87499  -0.00006   0.00010  -0.00066  -0.00053   1.87446
    A7        1.96768   0.00015   0.00016   0.00082   0.00090   1.96858
    A8        1.90013   0.00030  -0.00140   0.00825   0.00676   1.90689
    A9        1.91774  -0.00009   0.00118  -0.00465  -0.00354   1.91419
   A10        1.89764   0.00044   0.00608  -0.00110   0.00498   1.90262
   A11        1.92527  -0.00078  -0.00580  -0.00269  -0.00847   1.91681
   A12        1.85144  -0.00001  -0.00009  -0.00048  -0.00047   1.85098
   A13        1.94970   0.00003  -0.00001   0.00017   0.00013   1.94983
   A14        1.95165  -0.00127   0.00159  -0.01129  -0.00970   1.94195
   A15        1.92543   0.00112  -0.00152   0.01026   0.00874   1.93417
   A16        1.87826   0.00044  -0.00018   0.00057   0.00037   1.87863
   A17        1.88093  -0.00036   0.00014   0.00005   0.00016   1.88110
   A18        1.87463   0.00006  -0.00002   0.00039   0.00039   1.87503
    D1       -2.96706  -0.00201   0.00000   0.00000  -0.00000  -2.96706
    D2       -0.85976  -0.00115   0.00679   0.00483   0.01162  -0.84814
    D3        1.16088  -0.00104   0.00655   0.00635   0.01292   1.17380
    D4       -0.90793  -0.00037   0.00754   0.01209   0.01966  -0.88827
    D5        1.19937   0.00049   0.01433   0.01693   0.03129   1.23065
    D6       -3.06318   0.00060   0.01410   0.01845   0.03258  -3.03059
    D7        1.17794  -0.00042   0.00787   0.01130   0.01912   1.19706
    D8       -2.99795   0.00044   0.01465   0.01613   0.03075  -2.96721
    D9       -0.97731   0.00055   0.01442   0.01765   0.03204  -0.94527
   D10        3.13125   0.00068   0.00218   0.01527   0.01745  -3.13449
   D11       -1.04560   0.00037   0.00304   0.00822   0.01127  -1.03432
   D12        1.03950   0.00037   0.00304   0.00821   0.01124   1.05073
   D13        1.02253  -0.00010  -0.00023   0.00510   0.00483   1.02736
   D14        3.12887  -0.00041   0.00064  -0.00195  -0.00135   3.12752
   D15       -1.06922  -0.00041   0.00064  -0.00196  -0.00138  -1.07061
   D16       -1.00088   0.00009  -0.00061   0.00782   0.00726  -0.99362
   D17        1.10546  -0.00022   0.00026   0.00076   0.00108   1.10654
   D18       -3.09263  -0.00022   0.00025   0.00075   0.00104  -3.09158
         Item               Value     Threshold  Converged?
 Maximum Force            0.001272     0.000450     NO 
 RMS     Force            0.000438     0.000300     NO 
 Maximum Displacement     0.029257     0.001800     NO 
 RMS     Displacement     0.011462     0.001200     NO 
 Predicted change in Energy=-6.231916D-05
 GradGradGradGradGradGradGradGradGradGradGradGradGradGradGradGradGradGrad

                          Input orientation:                          
 ---------------------------------------------------------------------
 Center     Atomic      Atomic             Coordinates (Angstroms)
 Number     Number       Type             X           Y           Z
 ---------------------------------------------------------------------
      1          6           0       -1.277963   -0.260527    0.014009
      2          6           0        0.000279    0.588845    0.025752
      3          1           0       -2.179849    0.360274   -0.129828
      4          1           0       -1.252864   -0.991854   -0.816017
      5          1           0       -1.394468   -0.830455    0.952951
      6          6           0        1.277449   -0.259008   -0.021917
      7          1           0       -0.009511    1.275425   -0.842867
      8          1           0        0.011059    1.233411    0.925182
      9          1           0        2.185735    0.369036   -0.005419
     10          1           0        1.332345   -0.950067    0.839281
     11          1           0        1.307816   -0.872359   -0.941150
 ---------------------------------------------------------------------
                    Distance matrix (angstroms):
                    1          2          3          4          5
     1  C    0.000000
     2  C    1.534756   0.000000
     3  H    1.104301   2.197591   0.000000
     4  H    1.106532   2.185761   1.777191   0.000000
     5  H    1.104538   2.195321   1.790830   1.781952   0.000000
     6  C    2.555666   1.533718   3.513981   2.751389   2.901045
     7  H    2.168492   1.107243   2.460954   2.585963   3.094802
     8  H    2.173400   1.106597   2.583697   3.095332   2.497162
     9  H    3.520502   2.196703   4.367365   3.785902   3.895524
    10  H    2.823163   2.191912   3.871908   3.070026   2.731801
    11  H    2.823636   2.186245   3.787009   2.566518   3.300260
                    6          7          8          9         10
     6  C    0.000000
     7  H    2.164419   0.000000
     8  H    2.174409   1.768668   0.000000
     9  H    1.104398   2.518326   2.518408   0.000000
    10  H    1.105548   3.095644   2.553576   1.783767   0.000000
    11  H    1.105492   2.521505   3.098232   1.785328   1.782294
                   11
    11  H    0.000000
 Stoichiometry    C3H8
 Framework group  C1[X(C3H8)]
 Deg. of freedom    27
 Full point group                 C1      NOp   1
 Largest Abelian subgroup         C1      NOp   1
 Largest concise Abelian subgroup C1      NOp   1
                         Standard orientation:                         
 ---------------------------------------------------------------------
 Center     Atomic      Atomic             Coordinates (Angstroms)
 Number     Number       Type             X           Y           Z
 ---------------------------------------------------------------------
      1          6           0        1.278226   -0.259580   -0.002693
      2          6           0       -0.000660    0.588905   -0.002797
      3          1           0        2.177520    0.356679    0.173305
      4          1           0        1.243192   -1.018054    0.802231
      5          1           0        1.407444   -0.797974   -0.958433
      6          6           0       -1.277438   -0.260871    0.000206
      7          1           0       -0.002811    1.246300    0.888166
      8          1           0       -0.000514    1.262944   -0.880422
      9          1           0       -2.186102    0.366799   -0.007203
     10          1           0       -1.320480   -0.923018   -0.884071
     11          1           0       -1.319015   -0.904397    0.898125
 ---------------------------------------------------------------------
 Rotational constants (GHZ):          29.0934684           8.3354435           7.3845263
 Standard basis: 6-31+G(d) (6D, 7F)
 There are    73 symmetry adapted cartesian basis functions of A   symmetry.
 There are    73 symmetry adapted basis functions of A   symmetry.
    73 basis functions,   128 primitive gaussians,    73 cartesian basis functions
    13 alpha electrons       13 beta electrons
       nuclear repulsion energy        81.9503614509 Hartrees.
 NAtoms=   11 NActive=   11 NUniq=   11 SFac= 1.00D+00 NAtFMM=   60 NAOKFM=F Big=F
 Integral buffers will be    131072 words long.
 Raffenetti 2 integral format.
 Two-electron integral symmetry is turned on.
 Nuclear repulsion after empirical dispersion term =       81.9443479303 Hartrees.
 One-electron integrals computed using PRISM.
 NBasis=    73 RedAO= T EigKep=  2.21D-04  NBF=    73
 NBsUse=    73 1.00D-06 EigRej= -1.00D+00 NBFU=    73
 Initial guess from the checkpoint file:  "CC_H8C3_0_1_PBEPBE-GD3BJ_6-31+G-D_d91b46644317dee9c2b868166c66a18c~1.chk"
 B after Tr=    -0.000000   -0.000000   -0.000000
         Rot=    0.999999   -0.000723    0.001059   -0.000334 Ang=  -0.15 deg.
 ExpMin= 4.38D-02 ExpMax= 3.05D+03 ExpMxC= 4.57D+02 IAcc=3 IRadAn=         5 AccDes= 0.00D+00
 Harris functional with IExCor= 1009 and IRadAn=       5 diagonalized for initial guess.
 HarFok:  IExCor= 1009 AccDes= 0.00D+00 IRadAn=         5 IDoV= 1 UseB2=F ITyADJ=14
 ICtDFT=  3500011 ScaDFX=  1.000000  1.000000  1.000000  1.000000
 FoFCou: FMM=F IPFlag=           0 FMFlag=      100000 FMFlg1=           0
         NFxFlg=           0 DoJE=T BraDBF=F KetDBF=T FulRan=T
         wScrn=  0.000000 ICntrl=       500 IOpCl=  0 I1Cent=   200000004 NGrid=           0
         NMat0=    1 NMatS0=      1 NMatT0=    0 NMatD0=    1 NMtDS0=    0 NMtDT0=    0
 Petite list used in FoFCou.
 Keep J ints in memory in canonical form, NReq=25192566.
 Requested convergence on RMS density matrix=1.00D-08 within 128 cycles.
 Requested convergence on MAX density matrix=1.00D-06.
 Requested convergence on             energy=1.00D-06.
 No special actions if energy rises.
 SCF Done:  E(RPBE-PBE) =  -118.965615117     A.U. after    8 cycles
            NFock=  8  Conv=0.44D-08     -V/T= 2.0113
[...]
           D8          70.94200  79.68325  89.12471  99.44433 110.65076
           D9        -173.22890-164.45516-155.03066-144.61518-133.42267
           D10       -179.45755-179.09975-178.94410-179.10366-179.45141
           D11        -59.13623 -58.73557 -58.56351 -58.73585 -59.13159
           D12         60.32205  60.72244  60.88686  60.72451  60.32790
           D13         58.94135  59.55387  59.74521  59.32023  58.52470
           D14        179.26266 179.91805-179.87419 179.68804 178.84452
           D15        -61.27905 -60.62394 -60.42383 -60.85160 -61.69599
           D16        -56.86759 -56.04324 -55.61443 -55.73155 -56.35200
           D17         63.45372  64.32093  64.76617  64.63625  63.96782
           D18       -177.08799-176.22105-175.78347-175.90339-176.57269
                          31        32        33        34        35
     Eigenvalues --    -0.96112  -0.96148  -0.96241  -0.96363  -0.96479
           R1           1.54924   1.54817   1.54469   1.54076   1.53703
           R2           1.10364   1.10352   1.10370   1.10386   1.10412
           R3           1.10351   1.10325   1.10331   1.10366   1.10424
           R4           1.10515   1.10571   1.10624   1.10653   1.10649
           R5           1.53496   1.53457   1.53459   1.53421   1.53411
           R6           1.10564   1.10559   1.10575   1.10606   1.10642
           R7           1.10573   1.10604   1.10644   1.10680   1.10704
           R8           1.10465   1.10465   1.10458   1.10451   1.10443
           R9           1.10543   1.10527   1.10514   1.10514   1.10520
           R10          1.10548   1.10568   1.10583   1.10589   1.10585
           A1         112.13164 112.13960 112.10414 111.99023 111.86149
           A2         112.14048 112.31244 112.34885 112.18521 111.89074
           A3         111.16564 110.83076 110.54698 110.40201 110.45216
           A4         107.15421 107.90075 108.46168 108.74462 108.65555
           A5         106.93985 106.35017 106.01023 106.06213 106.44042
           A6         106.99701 106.98534 107.04513 107.15965 107.28762
           A7         113.10084 113.09419 113.04433 112.94402 112.83923
           A8         109.97070 110.06360 110.11177 110.04562 109.90363
           A9         109.99496 109.76556 109.51943 109.30976 109.23421
           A10        108.93038 109.45941 109.85769 110.08244 110.04943
           A11        108.92399 108.53713 108.32020 108.37339 108.62278
           A12        105.64044 105.64014 105.70906 105.82001 105.94622
           A13        111.71560 111.73290 111.71941 111.73099 111.71645
           A14        111.00218 110.85220 110.74419 110.72567 110.78427
           A15        111.01596 111.18371 111.29269 111.33468 111.29178
           A16        107.72683 107.75745 107.80219 107.80633 107.79687
           A17        107.72719 107.67282 107.64600 107.62273 107.63516
           A18        107.46633 107.45269 107.44807 107.42989 107.42579
           D1         119.99978 130.00008 140.00009 150.00005 160.00009
           D2        -117.97641-107.22774 -96.70960 -86.53857 -76.76186
           D3          -2.03350   8.63540  19.12196  29.26841  39.07372
           D4        -119.38762-108.28710 -97.55248 -87.38781 -77.81459
           D5           2.63619  14.48509  25.73783  36.07358  45.42346
           D6         118.57911 130.34823 141.56939 151.88055 161.25904
           D7           0.34550  11.31644  21.95653  32.05938  41.63481
           D8         122.36931 134.08863 145.24684 155.52076 164.87287
           D9        -121.68777-110.04823 -98.92160 -88.67226 -79.29156
           D10        179.98786 179.42403 179.00194 178.85560 179.01404
           D11        -59.75002 -60.36586 -60.81393 -60.95987 -60.78325
           D12         59.71585  59.09423  58.64045  58.48688  58.66902
           D13         57.38322  56.31682  55.57129  55.41457  55.85698
           D14        177.64534 176.52693 175.75542 175.59910 176.05970
           D15        -62.88879 -64.01297 -64.79020 -64.95415 -64.48803
           D16        -57.38103 -58.52080 -59.44165 -59.88092 -59.71201
           D17         62.88109  61.68931  60.74248  60.30360  60.49071
           D18       -177.65304-178.85059-179.80314 179.75036 179.94298
                          36
     Eigenvalues --    -0.96562
           R1           1.53470
           R2           1.10425
           R3           1.10491
           R4           1.10613
           R5           1.53376
           R6           1.10676
           R7           1.10711
           R8           1.10438
           R9           1.10537
           R10          1.10574
           A1         111.74355
           A2         111.47376
           A3         110.68985
           A4         108.28849
           A5         107.04916
           A6         107.38755
           A7         112.76079
           A8         109.66262
           A9         109.28979
           A10        109.83394
           A11        109.02996
           A12        106.03745
           A13        111.72401
           A14        110.90880
           A15        111.19320
           A16        107.74891
           A17        107.65656
           A18        107.41673
           D1         170.00007
           D2         -67.27232
           D3          48.56901
           D4         -68.67232
           D5          54.05528
           D6         169.89662
           D7          50.78855
           D8         173.51615
           D9         -70.64251
           D10        179.40747
           D11        -60.36058
           D12         59.09792
           D13         56.77574
           D14        177.00769
           D15        -63.53380
           D16        -59.01418
           D17         61.21777
           D18       -179.32372
 GradGradGradGradGradGradGradGradGradGradGradGradGradGradGradGradGradGrad

                          Input orientation:                          
 ---------------------------------------------------------------------
 Center     Atomic      Atomic             Coordinates (Angstroms)
 Number     Number       Type             X           Y           Z
 ---------------------------------------------------------------------
      1          6           0       -1.231461   -0.399609    0.181649
      2          6           0        0.156457    0.119332    0.581262
      3          1           0       -1.846244   -0.645621    1.065329
      4          1           0       -1.780369    0.341161   -0.427272
      5          1           0       -1.144811   -1.323418   -0.420509
      6          6           0        1.112452    0.236532   -0.612368
      7          1           0        0.057040    1.102007    1.080647
      8          1           0        0.599322   -0.562306    1.332881
      9          1           0        2.101822    0.621030   -0.307467
     10          1           0        1.266547   -0.747150   -1.092432
     11          1           0        0.709275    0.920762   -1.381744
 ---------------------------------------------------------------------
                    Distance matrix (angstroms):
                    1          2          3          4          5
     1  C    0.000000
     2  C    1.534701   0.000000
     3  H    1.104252   2.197792   0.000000
     4  H    1.104910   2.194913   1.790513   0.000000
     5  H    1.106130   2.185949   1.777395   1.781798   0.000000
     6  C    2.555204   1.533759   3.513794   2.900625   2.750544
     7  H    2.173312   1.106761   2.583976   2.495752   3.095255
     8  H    2.168771   1.107110   2.461568   3.094724   2.587598
     9  H    3.520186   2.196812   4.367631   3.894109   3.786064
    10  H    2.825616   2.187313   3.788893   3.303113   2.568698
    11  H    2.820289   2.191184   3.869419   2.728604   3.065607
                    6          7          8          9         10
     6  C    0.000000
     7  H    2.174683   0.000000
     8  H    2.164588   1.768511   0.000000
     9  H    1.104380   2.517803   2.519630   0.000000
    10  H    1.105367   3.099123   2.522201   1.784872   0.000000
    11  H    1.105741   2.553749   3.095282   1.784124   1.782185
                   11
    11  H    0.000000
 Stoichiometry    C3H8
 Framework group  C1[X(C3H8)]
 Deg. of freedom    27
 Full point group                 C1      NOp   1
 Largest Abelian subgroup         C1      NOp   1
 Largest concise Abelian subgroup C1      NOp   1
                         Standard orientation:                         
 ---------------------------------------------------------------------
 Center     Atomic      Atomic             Coordinates (Angstroms)
 Number     Number       Type             X           Y           Z
 ---------------------------------------------------------------------
      1          6           0        1.277971   -0.259697    0.002316
      2          6           0       -0.000596    0.589169    0.002571
      3          1           0        2.177653    0.355880   -0.173779
      4          1           0        1.407144   -0.796701    0.959274
      5          1           0        1.242519   -1.019408   -0.800869
      6          6           0       -1.277231   -0.260895   -0.000241
      7          1           0       -0.000058    1.263000    0.880564
      8          1           0       -0.002995    1.247041   -0.887872
      9          1           0       -2.186072    0.366437    0.010593
     10          1           0       -1.321664   -0.902956   -0.898918
     11          1           0       -1.317390   -0.924753    0.883129
 ---------------------------------------------------------------------
 Rotational constants (GHZ):          29.0830749           8.3379589           7.3856371

 **********************************************************************

            Population analysis using the SCF Density.

 **********************************************************************

 Orbital symmetries:
       Occupied  (A) (A) (A) (A) (A) (A) (A) (A) (A) (A) (A) (A)
                 (A)
       Virtual   (A) (A) (A) (A) (A) (A) (A) (A) (A) (A) (A) (A)
                 (A) (A) (A) (A) (A) (A) (A) (A) (A) (A) (A) (A)
                 (A) (A) (A) (A) (A) (A) (A) (A) (A) (A) (A) (A)
                 (A) (A) (A) (A) (A) (A) (A) (A) (A) (A) (A) (A)
                 (A) (A) (A) (A) (A) (A) (A) (A) (A) (A) (A) (A)
 The electronic state is 1-A.
 Alpha  occ. eigenvalues --   -9.89874  -9.88954  -9.88951  -0.70475  -0.61106
 Alpha  occ. eigenvalues --   -0.52192  -0.40502  -0.38662  -0.35048  -0.33346
 Alpha  occ. eigenvalues --   -0.29485  -0.29339  -0.28312
 Alpha virt. eigenvalues --    0.00263   0.02047   0.02446   0.03300   0.05799
 Alpha virt. eigenvalues --    0.06731   0.07376   0.07466   0.08334   0.10289
 Alpha virt. eigenvalues --    0.11049   0.13842   0.16518   0.17026   0.17408
 Alpha virt. eigenvalues --    0.20913   0.22227   0.22944   0.24769   0.28158
 Alpha virt. eigenvalues --    0.30407   0.31691   0.57336   0.59861   0.61320
 Alpha virt. eigenvalues --    0.62512   0.64743   0.65497   0.68235   0.69228
 Alpha virt. eigenvalues --    0.78722   0.88226   0.89778   0.91750   0.93819
 Alpha virt. eigenvalues --    0.96171   1.00304   1.05430   1.06443   1.07219
 Alpha virt. eigenvalues --    1.34431   1.39789   1.42063   1.52685   1.68080
 Alpha virt. eigenvalues --    1.82559   1.85828   1.91544   1.97197   2.03410
 Alpha virt. eigenvalues --    2.16316   2.17324   2.26269   2.31069   2.33852
 Alpha virt. eigenvalues --    2.51925   2.61603   4.08362   4.21294   4.39173
          Condensed to atoms (all electrons):
               1          2          3          4          5          6
     1  C    5.608301   0.103611   0.391401   0.396772   0.400748  -0.105343
     2  C    0.103611   5.642396  -0.065088  -0.045942  -0.060201   0.110838
     3  H    0.391401  -0.065088   0.501981  -0.026216  -0.028409   0.018388
     4  H    0.396772  -0.045942  -0.026216   0.499981  -0.031183  -0.011705
     5  H    0.400748  -0.060201  -0.028409  -0.031183   0.508437  -0.006621
     6  C   -0.105343   0.110838   0.018388  -0.011705  -0.006621   5.602868
     7  H   -0.049879   0.404644  -0.001691  -0.006055   0.004549  -0.050728
     8  H   -0.055713   0.414785  -0.004034   0.004428  -0.003600  -0.054838
     9  H    0.019005  -0.065859  -0.000129  -0.000056   0.000056   0.391100
    10  H   -0.011274  -0.053146  -0.000006  -0.000308   0.004079   0.400382
    11  H   -0.008052  -0.052645  -0.000002   0.002967  -0.000606   0.397106
               7          8          9         10         11
     1  C   -0.049879  -0.055713   0.019005  -0.011274  -0.008052
     2  C    0.404644   0.414785  -0.065859  -0.053146  -0.052645
     3  H   -0.001691  -0.004034  -0.000129  -0.000006  -0.000002
     4  H   -0.006055   0.004428  -0.000056  -0.000308   0.002967
     5  H    0.004549  -0.003600   0.000056   0.004079  -0.000606
     6  C   -0.050728  -0.054838   0.391100   0.400382   0.397106
     7  H    0.523591  -0.035098  -0.002763   0.004491  -0.004719
     8  H   -0.035098   0.524663  -0.002909  -0.005129   0.004585
     9  H   -0.002763  -0.002909   0.502322  -0.026991  -0.027402
    10  H    0.004491  -0.005129  -0.026991   0.504263  -0.031417
    11  H   -0.004719   0.004585  -0.027402  -0.031417   0.504844
 Mulliken charges:
               1
     1  C   -0.689578
     2  C   -0.333392
     3  H    0.213805
     4  H    0.217317
     5  H    0.212752
     6  C   -0.691447
     7  H    0.213660
     8  H    0.212860
     9  H    0.213626
    10  H    0.215056
    11  H    0.215342
 Sum of Mulliken charges =   0.00000
 Mulliken charges with hydrogens summed into heavy atoms:
               1
     1  C   -0.045704
     2  C    0.093128
     6  C   -0.047423
 Electronic spatial extent (au):  <R**2>=            229.9215
 Charge=              0.0000 electrons
 Dipole moment (field-independent basis, Debye):
    X=              0.0010    Y=              0.0895    Z=             -0.0083  Tot=              0.0899
 Quadrupole moment (field-independent basis, Debye-Ang):
   XX=            -22.6300   YY=            -22.2690   ZZ=            -21.7455
   XY=             -0.0061   XZ=             -0.0221   YZ=             -0.0124
 Traceless Quadrupole moment (field-independent basis, Debye-Ang):
   XX=             -0.4152   YY=             -0.0542   ZZ=              0.4693
   XY=             -0.0061   XZ=             -0.0221   YZ=             -0.0124
 Octapole moment (field-independent basis, Debye-Ang**2):
  XXX=             -0.0201  YYY=              0.4300  ZZZ=              0.2214  XYY=             -0.0259
  XXY=              1.5737  XXZ=             -0.1361  XZZ=              0.0541  YZZ=             -0.4499
  YYZ=             -0.1214  XYZ=             -0.1586
 Hexadecapole moment (field-independent basis, Debye-Ang**3):
 XXXX=           -213.3349 YYYY=            -76.5363 ZZZZ=            -47.0664 XXXY=             -0.1193
 XXXZ=             -0.6139 YYYX=             -0.0172 YYYZ=              0.2681 ZZZX=              0.4612
 ZZZY=             -0.1438 XXYY=            -47.8764 XXZZ=            -44.2087 YYZZ=            -18.4516
 XXYZ=             -0.4193 YYXZ=             -0.1746 ZZXY=              0.0651
 N-N= 8.194617327119D+01 E-N=-4.381398368474D+02  KE= 1.176391289559D+02
 There are a total of      250426 grid points.
 ElSum from          density=       26.0000002279
 ElSum from atomic densities=       25.9999996168

 Hirshfeld populations at iteration   1 (CX, CA, CB, DipXYZ):
               1          2          3          4          5          6
     1  C    0.000000   3.047380   3.047380  -0.016291   0.015365   0.001267
     2  C    0.000000   3.026811   3.026811   0.000399  -0.019414   0.001577
     3  H    0.000002   0.484214   0.484214   0.105529   0.079289  -0.023527
     4  H    0.000002   0.484714   0.484714   0.012339  -0.060852   0.117533
     5  H    0.000002   0.485161   0.485161  -0.005871  -0.086418  -0.097644
     6  C    0.000000   3.047367   3.047367   0.015950   0.014945   0.000237
     7  H    0.000001   0.484984   0.484984   0.000040   0.075621   0.106336
     8  H    0.000001   0.485232   0.485232  -0.000160   0.073460  -0.107446
     9  H    0.000002   0.484230   0.484230  -0.106731   0.080873   0.001327
    10  H    0.000001   0.484896   0.484896  -0.002916  -0.072810  -0.109915
    11  H    0.000002   0.485011   0.485011  -0.002130  -0.075572   0.107711
       Tot   0.000013  13.000000  13.000000   0.000158   0.024488  -0.002543

 Dip from Atomic Chgs              0.000227   0.010730  -0.000736
         Total Dipole              0.000385   0.035218  -0.003279

 Hirshfeld charges, spin densities, dipoles, and CM5 charges using IRadAn=      5:
              Q-H        S-H        Dx         Dy         Dz        Q-CM5   
     1  C   -0.094760   0.000000  -0.016291   0.015365   0.001267  -0.240853
     2  C   -0.053622   0.000000   0.000399  -0.019414   0.001577  -0.164005
     3  H    0.031572   0.000000   0.105529   0.079289  -0.023527   0.080895
     4  H    0.030571   0.000000   0.012339  -0.060852   0.117533   0.080264
     5  H    0.029679   0.000000  -0.005871  -0.086418  -0.097644   0.079546
     6  C   -0.094733   0.000000   0.015950   0.014945   0.000237  -0.240843
     7  H    0.030031   0.000000   0.000040   0.075621   0.106336   0.082407
     8  H    0.029537   0.000000  -0.000160   0.073460  -0.107446   0.081993
     9  H    0.031540   0.000000  -0.106731   0.080873   0.001327   0.080854
    10  H    0.030207   0.000000  -0.002916  -0.072810  -0.109915   0.080018
    11  H    0.029979   0.000000  -0.002130  -0.075572   0.107711   0.079725
       Tot  -0.000000   0.000000   0.000158   0.024488  -0.002543  -0.000000
 Hirshfeld charges with hydrogens summed into heavy atoms:
              Q-H       Q-CM5   
     1  C   -0.002938  -0.000148
     2  C    0.005946   0.000394
     6  C   -0.003008  -0.000247
 
 EQQ=  0.00000000000     EQD=  0.00000000000     EDD=-0.170314796783E-02
 EQQ+QD+DD=-0.170314796783E-02
 
 1\1\GINC-TCN947\Scan\RPBEPBE\6-31+G(d)\C3H8\SELSAMI\07-Dec-2019\0\\#op
 t=modredundant PBEPBE 6-31+G(D) EmpiricalDispersion=GD3BJ pop=CM5\\CC_
 H8C3_0_1_PBEPBE-GD3BJ_6-31+G-D_d91b46644317dee9c2b868166c66a18c~1\\0,1
 \C,-1.2314606354,-0.3996093785,0.1816488507\C,0.1564572517,0.119332341
 5,0.5812617474\H,-1.8462444271,-0.6456210475,1.0653293005\H,-1.7803693
 048,0.3411613826,-0.4272715854\H,-1.1448109811,-1.3234175397,-0.420509
 1175\C,1.1124524268,0.2365319664,-0.6123683508\H,0.0570399605,1.102007
 2189,1.0806472673\H,0.5993215922,-0.5623063329,1.3328809133\H,2.101821
 5842,0.6210301834,-0.3074671207\H,1.2665469275,-0.7471497499,-1.092431
 7449\H,0.7092746055,0.9207619559,-1.3817441599\\Version=ES64L-G16RevB.
 01\State=1-A\HF=-118.9659119,-118.9656159,-118.9647912,-118.9636262,-1
 18.9624124,-118.9614847,-118.9611237,-118.9614452,-118.9623491,-118.96
 35619,-118.9647441,-118.9655942,-118.9659118,-118.9656256,-118.9647989
 ,-118.9636245,-118.9624007,-118.9614711,-118.9611234,-118.9614713,-118
 .9624007,-118.9636245,-118.964799,-118.9656257,-118.9659118,-118.96559
 42,-118.9647442,-118.963562,-118.9623492,-118.9614453,-118.9611238,-11
 8.9614846,-118.9624123,-118.9636263,-118.9647913,-118.9656159\RMSD=5.7
 43e-10,8.840e-09,3.995e-09,4.379e-09,6.672e-09,6.908e-09,7.978e-09,8.1
 09e-09,7.177e-09,5.437e-09,3.891e-09,2.751e-09,2.733e-09,2.903e-09,2.6
 35e-09,3.952e-09,4.339e-09,5.145e-09,5.623e-09,4.860e-09,4.606e-09,3.9
 64e-09,9.616e-09,2.841e-09,7.929e-09,8.557e-09,4.670e-09,6.134e-09,7.4
 50e-09,8.050e-09,7.870e-09,6.063e-09,4.767e-09,3.762e-09,9.001e-09,6.0
 94e-09\PG=C01 [X(C3H8)]\\@


 BULLDOZER: SOMEONE WHO SLEEPS THROUGH SPEECHES.
 Job cpu time:       0 days  1 hours 24 minutes 30.9 seconds.
 Elapsed time:       0 days  0 hours  4 minutes  4.3 seconds.
 File lengths (MBytes):  RWF=     10 Int=      0 D2E=      0 Chk=      4 Scr=      1
 Normal termination of Gaussian 16 at Sat Dec  7 07:53:23 2019.
