propane_hessian                                                         
Freq      RPBEPBE                                                     6-31G(d)            
Number of atoms                            I               11
Info1-9                                    I   N=           9
          22          22        1002           0           0         100
           6          18         902
Full Title                                 C   N=           2
propane_hessian         
Route                                      C   N=           4
#freq opt PBEPBE 6-31G(D) pop=(CM5, NBOREAD)    
Charge                                     I                0
Multiplicity                               I                1
Number of electrons                        I               26
Number of alpha electrons                  I               13
Number of beta electrons                   I               13
Number of basis functions                  I               61
Number of independent functions            I               61
Number of point charges in /Mol/           I                0
Number of translation vectors              I                0
Atomic numbers                             I   N=          11
           6           6           1           1           1           6
           1           1           1           1           1
Nuclear charges                            R   N=          11
  6.00000000E+00  6.00000000E+00  1.00000000E+00  1.00000000E+00  1.00000000E+00
  6.00000000E+00  1.00000000E+00  1.00000000E+00  1.00000000E+00  1.00000000E+00
  1.00000000E+00
Current cartesian coordinates              R   N=          33
 -2.41433431E+00 -4.91144341E-01  1.18301093E-04  1.47494689E-05  1.10976228E+00
  1.14910427E-04 -4.12781689E+00  6.98240206E-01  3.72101448E-04 -2.49924960E+00
 -1.72485537E+00 -1.68241337E+00 -2.49900083E+00 -1.72519619E+00  1.68241334E+00
  2.41430861E+00 -4.91144637E-01 -2.23903517E-04 -1.15389803E-04  2.36958249E+00
 -1.66900593E+00  1.10711853E-04  2.36920932E+00  1.66951660E+00  4.12783648E+00
  6.98202454E-01 -3.20399306E-04  2.49931443E+00 -1.72511605E+00  1.68211256E+00
  2.49898673E+00 -1.72490666E+00 -1.68273075E+00
Number of symbols in /Mol/                 I                0
Force Field                                I                0
Atom Types                                 C   N=          11
                                                            
                                                            
            
Int Atom Types                             I   N=          11
           0           0           0           0           0           0
           0           0           0           0           0
MM charges                                 R   N=          11
  0.00000000E+00  0.00000000E+00  0.00000000E+00  0.00000000E+00  0.00000000E+00
  0.00000000E+00  0.00000000E+00  0.00000000E+00  0.00000000E+00  0.00000000E+00
  0.00000000E+00
Integer atomic weights                     I   N=          11
          12          12           1           1           1          12
           1           1           1           1           1
Real atomic weights                        R   N=          11
  1.20000000E+01  1.20000000E+01  1.00782504E+00  1.00782504E+00  1.00782504E+00
  1.20000000E+01  1.00782504E+00  1.00782504E+00  1.00782504E+00  1.00782504E+00
  1.00782504E+00
Atom fragment info                         I   N=          11
           0           0           0           0           0           0
           0           0           0           0           0
Atom residue num                           I   N=          11
           0           0           0           0           0           0
           0           0           0           0           0
Nuclear spins                              I   N=          11
           0           0           1           1           1           0
           1           1           1           1           1
Nuclear ZEff                               R   N=          11
 -3.60000000E+00 -3.60000000E+00 -1.00000000E+00 -1.00000000E+00 -1.00000000E+00
 -3.60000000E+00 -1.00000000E+00 -1.00000000E+00 -1.00000000E+00 -1.00000000E+00
 -1.00000000E+00
Nuclear ZNuc                               R   N=          11
  6.00000000E+00  6.00000000E+00  1.00000000E+00  1.00000000E+00  1.00000000E+00
  6.00000000E+00  1.00000000E+00  1.00000000E+00  1.00000000E+00  1.00000000E+00
  1.00000000E+00
Nuclear QMom                               R   N=          11
  0.00000000E+00  0.00000000E+00  0.00000000E+00  0.00000000E+00  0.00000000E+00
  0.00000000E+00  0.00000000E+00  0.00000000E+00  0.00000000E+00  0.00000000E+00
  0.00000000E+00
Nuclear GFac                               R   N=          11
  0.00000000E+00  0.00000000E+00  2.79284600E+00  2.79284600E+00  2.79284600E+00
  0.00000000E+00  2.79284600E+00  2.79284600E+00  2.79284600E+00  2.79284600E+00
  2.79284600E+00
MicOpt                                     I   N=          11
          -1          -1          -1          -1          -1          -1
          -1          -1          -1          -1          -1
Number of residues                         I                0
Number of secondary structures             I                0
Redundant internal dimensions              I   N=           4
          46          10          18          18
Redundant internal coordinate indices      I   N=         184
           1           2           0           0           1           3
           0           0           1           4           0           0
           1           5           0           0           2           6
           0           0           2           7           0           0
           2           8           0           0           6           9
           0           0           6          10           0           0
           6          11           0           0           2           1
           3           0           2           1           4           0
           2           1           5           0           3           1
           4           0           3           1           5           0
           4           1           5           0           1           2
           6           0           1           2           7           0
           1           2           8           0           6           2
           7           0           6           2           8           0
           7           2           8           0           2           6
           9           0           2           6          10           0
           2           6          11           0           9           6
          10           0           9           6          11           0
          10           6          11           0           3           1
           2           6           3           1           2           7
           3           1           2           8           4           1
           2           6           4           1           2           7
           4           1           2           8           5           1
           2           6           5           1           2           7
           5           1           2           8           1           2
           6           9           1           2           6          10
           1           2           6          11           7           2
           6           9           7           2           6          10
           7           2           6          11           8           2
           6           9           8           2           6          10
           8           2           6          11
Redundant internal coordinates             R   N=          46
  2.89689202E+00  2.08582315E+00  2.08810113E+00  2.08810177E+00  2.89684620E+00
  2.09119855E+00  2.09119795E+00  2.08583898E+00  2.08810138E+00  2.08810163E+00
  1.94929981E+00  1.93949384E+00  1.93948600E+00  1.87926039E+00  1.87925490E+00
  1.87376117E+00  1.97055118E+00  1.91014663E+00  1.91013573E+00  1.91016230E+00
  1.91016027E+00  1.84870850E+00  1.94931633E+00  1.93951174E+00  1.93951412E+00
  1.87921933E+00  1.87921635E+00  1.87377452E+00  3.14158865E+00 -1.00938584E+00
  1.00938828E+00 -1.04268208E+00  1.08952874E+00  3.10830287E+00  1.04268643E+00
 -3.10828805E+00 -1.08951393E+00  3.14154124E+00 -1.04275824E+00  1.04265756E+00
  1.00933921E+00  3.10822504E+00 -1.08954447E+00 -1.00945748E+00  1.08942835E+00
 -3.10834115E+00
ZRed-IntVec                                I   N=          46
           0           0           0           0           0           0
           0           0           0           0           0           0
           0           0           0           0           0           0
           0           0           0           0           0           0
           0           0           0           0           0           0
           0           0           0           0           0           0
           0           0           0           0           0           0
           0           0           0           0
ZRed-FPVec                                 R   N=          46
  0.00000000E+00  0.00000000E+00  0.00000000E+00  0.00000000E+00  0.00000000E+00
  0.00000000E+00  0.00000000E+00  0.00000000E+00  0.00000000E+00  0.00000000E+00
  0.00000000E+00  0.00000000E+00  0.00000000E+00  0.00000000E+00  0.00000000E+00
  0.00000000E+00  0.00000000E+00  0.00000000E+00  0.00000000E+00  0.00000000E+00
  0.00000000E+00  0.00000000E+00  0.00000000E+00  0.00000000E+00  0.00000000E+00
  0.00000000E+00  0.00000000E+00  0.00000000E+00  0.00000000E+00  0.00000000E+00
  0.00000000E+00  0.00000000E+00  0.00000000E+00  0.00000000E+00  0.00000000E+00
  0.00000000E+00  0.00000000E+00  0.00000000E+00  0.00000000E+00  0.00000000E+00
  0.00000000E+00  0.00000000E+00  0.00000000E+00  0.00000000E+00  0.00000000E+00
  0.00000000E+00
ZRed-Constraint1                           R   N=          46
  2.89689202E+00  2.08582315E+00  2.08810113E+00  2.08810177E+00  2.89684620E+00
  2.09119855E+00  2.09119795E+00  2.08583898E+00  2.08810138E+00  2.08810163E+00
  1.94929981E+00  1.93949384E+00  1.93948600E+00  1.87926039E+00  1.87925490E+00
  1.87376117E+00  1.97055118E+00  1.91014663E+00  1.91013573E+00  1.91016230E+00
  1.91016027E+00  1.84870850E+00  1.94931633E+00  1.93951174E+00  1.93951412E+00
  1.87921933E+00  1.87921635E+00  1.87377452E+00  3.14158865E+00 -1.00938584E+00
  1.00938828E+00 -1.04268208E+00  1.08952874E+00  3.10830287E+00  1.04268643E+00
 -3.10828805E+00 -1.08951393E+00  3.14154124E+00 -1.04275824E+00  1.04265756E+00
  1.00933921E+00  3.10822504E+00 -1.08954447E+00 -1.00945748E+00  1.08942835E+00
 -3.10834115E+00
ZRed-Constraint2                           R   N=          46
  2.84970700E+00  2.10891827E+00  2.10871252E+00  2.11112943E+00  2.84871497E+00
  2.11968314E+00  2.12120305E+00  2.11144065E+00  2.10975629E+00  2.10975629E+00
  1.92684021E+00  1.93070374E+00  1.93027298E+00  1.89286657E+00  1.89336906E+00
  1.88866215E+00  1.95068679E+00  1.91073158E+00  1.91047817E+00  1.91069289E+00
  1.91043952E+00  1.86900158E+00  1.92651961E+00  1.93093742E+00  1.93093742E+00
  1.89194402E+00  1.89194402E+00  1.89040650E+00  3.14159265E+00 -1.02161935E+00
  1.02211255E+00 -1.04630585E+00  1.07366746E+00  3.11739936E+00  1.04595700E+00
 -3.11725500E+00 -1.07352310E+00  3.14159265E+00 -1.04751521E+00  1.04751521E+00
  1.02159699E+00  3.11567444E+00 -1.07248045E+00 -1.02209021E+00  1.07198724E+00
 -3.11616766E+00
SymInf integers                            I   N=          26
           1           1           1           1           1           0
           0           0           0           0           0           0
           0           0           0           0           0           0
           0           0           0           0           0           0
           0           0
RotTr to input orientation                 R   N=          12
  8.28050751E-01 -5.60653150E-01 -0.00000000E+00  5.60653150E-01  8.28050751E-01
 -0.00000000E+00 -0.00000000E+00 -0.00000000E+00  1.00000000E+00 -8.09901004E+00
  2.68792944E+00 -1.35712463E-01
Number of contracted shells                I               28
Number of primitive shells                 I               65
Pure/Cartesian d shells                    I                1
Pure/Cartesian f shells                    I                0
Highest angular momentum                   I                2
Largest degree of contraction              I                6
Shell types                                I   N=          28
           0          -1          -1           2           0          -1
          -1           2           0           0           0           0
           0           0           0          -1          -1           2
           0           0           0           0           0           0
           0           0           0           0
Number of primitives per shell             I   N=          28
           6           3           1           1           6           3
           1           1           3           1           3           1
           3           1           6           3           1           1
           3           1           3           1           3           1
           3           1           3           1
Shell to atom map                          I   N=          28
           1           1           1           1           2           2
           2           2           3           3           4           4
           5           5           6           6           6           6
           7           7           8           8           9           9
          10          10          11          11
Primitive exponents                        R   N=          65
  3.04752488E+03  4.57369518E+02  1.03948685E+02  2.92101553E+01  9.28666296E+00
  3.16392696E+00  7.86827235E+00  1.88128854E+00  5.44249258E-01  1.68714478E-01
  8.00000000E-01  3.04752488E+03  4.57369518E+02  1.03948685E+02  2.92101553E+01
  9.28666296E+00  3.16392696E+00  7.86827235E+00  1.88128854E+00  5.44249258E-01
  1.68714478E-01  8.00000000E-01  1.87311370E+01  2.82539436E+00  6.40121692E-01
  1.61277759E-01  1.87311370E+01  2.82539436E+00  6.40121692E-01  1.61277759E-01
  1.87311370E+01  2.82539436E+00  6.40121692E-01  1.61277759E-01  3.04752488E+03
  4.57369518E+02  1.03948685E+02  2.92101553E+01  9.28666296E+00  3.16392696E+00
  7.86827235E+00  1.88128854E+00  5.44249258E-01  1.68714478E-01  8.00000000E-01
  1.87311370E+01  2.82539436E+00  6.40121692E-01  1.61277759E-01  1.87311370E+01
  2.82539436E+00  6.40121692E-01  1.61277759E-01  1.87311370E+01  2.82539436E+00
  6.40121692E-01  1.61277759E-01  1.87311370E+01  2.82539436E+00  6.40121692E-01
  1.61277759E-01  1.87311370E+01  2.82539436E+00  6.40121692E-01  1.61277759E-01
Contraction coefficients                   R   N=          65
  1.83473713E-03  1.40373228E-02  6.88426223E-02  2.32184443E-01  4.67941348E-01
  3.62311985E-01 -1.19332420E-01 -1.60854152E-01  1.14345644E+00  1.00000000E+00
  1.00000000E+00  1.83473713E-03  1.40373228E-02  6.88426223E-02  2.32184443E-01
  4.67941348E-01  3.62311985E-01 -1.19332420E-01 -1.60854152E-01  1.14345644E+00
  1.00000000E+00  1.00000000E+00  3.34946043E-02  2.34726953E-01  8.13757326E-01
  1.00000000E+00  3.34946043E-02  2.34726953E-01  8.13757326E-01  1.00000000E+00
  3.34946043E-02  2.34726953E-01  8.13757326E-01  1.00000000E+00  1.83473713E-03
  1.40373228E-02  6.88426223E-02  2.32184443E-01  4.67941348E-01  3.62311985E-01
 -1.19332420E-01 -1.60854152E-01  1.14345644E+00  1.00000000E+00  1.00000000E+00
  3.34946043E-02  2.34726953E-01  8.13757326E-01  1.00000000E+00  3.34946043E-02
  2.34726953E-01  8.13757326E-01  1.00000000E+00  3.34946043E-02  2.34726953E-01
  8.13757326E-01  1.00000000E+00  3.34946043E-02  2.34726953E-01  8.13757326E-01
  1.00000000E+00  3.34946043E-02  2.34726953E-01  8.13757326E-01  1.00000000E+00
P(S=P) Contraction coefficients            R   N=          65
  0.00000000E+00  0.00000000E+00  0.00000000E+00  0.00000000E+00  0.00000000E+00
  0.00000000E+00  6.89990666E-02  3.16423961E-01  7.44308291E-01  1.00000000E+00
  0.00000000E+00  0.00000000E+00  0.00000000E+00  0.00000000E+00  0.00000000E+00
  0.00000000E+00  0.00000000E+00  6.89990666E-02  3.16423961E-01  7.44308291E-01
  1.00000000E+00  0.00000000E+00  0.00000000E+00  0.00000000E+00  0.00000000E+00
  0.00000000E+00  0.00000000E+00  0.00000000E+00  0.00000000E+00  0.00000000E+00
  0.00000000E+00  0.00000000E+00  0.00000000E+00  0.00000000E+00  0.00000000E+00
  0.00000000E+00  0.00000000E+00  0.00000000E+00  0.00000000E+00  0.00000000E+00
  6.89990666E-02  3.16423961E-01  7.44308291E-01  1.00000000E+00  0.00000000E+00
  0.00000000E+00  0.00000000E+00  0.00000000E+00  0.00000000E+00  0.00000000E+00
  0.00000000E+00  0.00000000E+00  0.00000000E+00  0.00000000E+00  0.00000000E+00
  0.00000000E+00  0.00000000E+00  0.00000000E+00  0.00000000E+00  0.00000000E+00
  0.00000000E+00  0.00000000E+00  0.00000000E+00  0.00000000E+00  0.00000000E+00
Coordinates of each shell                  R   N=          84
 -2.41433431E+00 -4.91144341E-01  1.18301093E-04 -2.41433431E+00 -4.91144341E-01
  1.18301093E-04 -2.41433431E+00 -4.91144341E-01  1.18301093E-04 -2.41433431E+00
 -4.91144341E-01  1.18301093E-04  1.47494689E-05  1.10976228E+00  1.14910427E-04
  1.47494689E-05  1.10976228E+00  1.14910427E-04  1.47494689E-05  1.10976228E+00
  1.14910427E-04  1.47494689E-05  1.10976228E+00  1.14910427E-04 -4.12781689E+00
  6.98240206E-01  3.72101448E-04 -4.12781689E+00  6.98240206E-01  3.72101448E-04
 -2.49924960E+00 -1.72485537E+00 -1.68241337E+00 -2.49924960E+00 -1.72485537E+00
 -1.68241337E+00 -2.49900083E+00 -1.72519619E+00  1.68241334E+00 -2.49900083E+00
 -1.72519619E+00  1.68241334E+00  2.41430861E+00 -4.91144637E-01 -2.23903517E-04
  2.41430861E+00 -4.91144637E-01 -2.23903517E-04  2.41430861E+00 -4.91144637E-01
 -2.23903517E-04  2.41430861E+00 -4.91144637E-01 -2.23903517E-04 -1.15389803E-04
  2.36958249E+00 -1.66900593E+00 -1.15389803E-04  2.36958249E+00 -1.66900593E+00
  1.10711853E-04  2.36920932E+00  1.66951660E+00  1.10711853E-04  2.36920932E+00
  1.66951660E+00  4.12783648E+00  6.98202454E-01 -3.20399306E-04  4.12783648E+00
  6.98202454E-01 -3.20399306E-04  2.49931443E+00 -1.72511605E+00  1.68211256E+00
  2.49931443E+00 -1.72511605E+00  1.68211256E+00  2.49898673E+00 -1.72490666E+00
 -1.68273075E+00  2.49898673E+00 -1.72490666E+00 -1.68273075E+00
Num ILSW                                   I              100
ILSW                                       I   N=         100
           0           1           0           0           2           0
           0           0           0           0        1009          -1
           5           0           0           0           2           0
           0           0           1           0           1           0
           1           0           0           0           0           0
           0           0      100000           0          -1           0
           0           0           0           0           0           0
           0           0           0           1           0           0
           0 -2000000000           1           0           0           0
           0           0           4          52           0           0
           0           0           0           0           0           0
           0           0           0           0           0           1
           0           0           0           0           0           0
           0           0           0           0           0           0
           0           0           0           0           0           0
           0           0           0           0           0           0
           0           0           0           0
Num RLSW                                   I               52
RLSW                                       R   N=          52
  1.00000000E+00  1.00000000E+00  1.00000000E+00  1.00000000E+00  0.00000000E+00
  0.00000000E+00  0.00000000E+00  1.00000000E+00  0.00000000E+00  0.00000000E+00
  0.00000000E+00  0.00000000E+00  1.00000000E+00  0.00000000E+00  0.00000000E+00
  0.00000000E+00  0.00000000E+00  1.00000000E+00  0.00000000E+00  0.00000000E+00
  0.00000000E+00  0.00000000E+00  1.00000000E+00  0.00000000E+00  0.00000000E+00
  0.00000000E+00  0.00000000E+00  1.00000000E+00  0.00000000E+00  0.00000000E+00
  0.00000000E+00  0.00000000E+00  1.00000000E+00  0.00000000E+00  0.00000000E+00
  0.00000000E+00  0.00000000E+00  0.00000000E+00  1.00000000E+00  1.00000000E+00
  0.00000000E+00  1.00000000E+00  0.00000000E+00  0.00000000E+00  0.00000000E+00
  0.00000000E+00  0.00000000E+00  0.00000000E+00  0.00000000E+00  0.00000000E+00
  0.00000000E+00  0.00000000E+00
MxBond                                     I                4
NBond                                      I   N=          11
           4           4           1           1           1           4
           1           1           1           1           1
IBond                                      I   N=          44
           2           3           4           5           1           6
           7           8           1           0           0           0
           1           0           0           0           1           0
           0           0           2           9          10          11
           2           0           0           0           2           0
           0           0           6           0           0           0
           6           0           0           0           6           0
           0           0
RBond                                      R   N=          44
  1.00000000E+00  1.00000000E+00  1.00000000E+00  1.00000000E+00  1.00000000E+00
  1.00000000E+00  1.00000000E+00  1.00000000E+00  1.00000000E+00  0.00000000E+00
  0.00000000E+00  0.00000000E+00  1.00000000E+00  0.00000000E+00  0.00000000E+00
  0.00000000E+00  1.00000000E+00  0.00000000E+00  0.00000000E+00  0.00000000E+00
  1.00000000E+00  1.00000000E+00  1.00000000E+00  1.00000000E+00  1.00000000E+00
  0.00000000E+00  0.00000000E+00  0.00000000E+00  1.00000000E+00  0.00000000E+00
  0.00000000E+00  0.00000000E+00  1.00000000E+00  0.00000000E+00  0.00000000E+00
  0.00000000E+00  1.00000000E+00  0.00000000E+00  0.00000000E+00  0.00000000E+00
  1.00000000E+00  0.00000000E+00  0.00000000E+00  0.00000000E+00
Virial Ratio                               R      2.011022405185035E+00
SCF Energy                                 R     -1.189549741632169E+02
Total Energy                               R     -1.189549741632169E+02
RMS Force                                  R      4.229444116320156E-05
RMS Density                                R      2.440599472875615E-09
NImag                                      I                0
Job Status                                 I                1
Nuclear derivative order                   I                2
External E-field                           R   N=          35
  0.00000000E+00  0.00000000E+00  0.00000000E+00  0.00000000E+00  0.00000000E+00
  0.00000000E+00  0.00000000E+00  0.00000000E+00  0.00000000E+00  0.00000000E+00
  0.00000000E+00  0.00000000E+00  0.00000000E+00  0.00000000E+00  0.00000000E+00
  0.00000000E+00  0.00000000E+00  0.00000000E+00  0.00000000E+00  0.00000000E+00
  0.00000000E+00  0.00000000E+00  0.00000000E+00  0.00000000E+00  0.00000000E+00
  0.00000000E+00  0.00000000E+00  0.00000000E+00  0.00000000E+00  0.00000000E+00
  0.00000000E+00  0.00000000E+00  0.00000000E+00  0.00000000E+00  0.00000000E+00
IOpCl                                      I                0
IROHF                                      I                0
Alpha Orbital Energies                     R   N=          61
 -9.89190270E+00 -9.88299940E+00 -9.88299281E+00 -6.97974150E-01 -6.04698882E-01
 -5.15483032E-01 -3.98295114E-01 -3.80039192E-01 -3.44243453E-01 -3.26624806E-01
 -2.88244556E-01 -2.86600278E-01 -2.76733223E-01  7.29713094E-02  1.19058773E-01
  1.22156886E-01  1.24979208E-01  1.44193199E-01  1.63802484E-01  1.66870764E-01
  1.66971427E-01  1.94339361E-01  2.30166313E-01  4.78780768E-01  4.85379798E-01
  5.15635660E-01  5.26485889E-01  5.52201620E-01  6.20812475E-01  6.53574352E-01
  6.96101970E-01  7.49642493E-01  8.22945824E-01  8.24941854E-01  8.39889911E-01
  8.61443291E-01  8.67294605E-01  9.06711096E-01  9.10697699E-01  9.25693527E-01
  9.91742799E-01  1.33690514E+00  1.39678017E+00  1.41515126E+00  1.51290276E+00
  1.67158221E+00  1.83119418E+00  1.84888758E+00  1.89392649E+00  1.96110373E+00
  2.01356274E+00  2.14682714E+00  2.16815037E+00  2.23974352E+00  2.29880105E+00
  2.32977034E+00  2.48812405E+00  2.59212119E+00  4.04891977E+00  4.19115001E+00
  4.37218224E+00
Alpha MO coefficients                      R   N=        3721
  6.00571167E-03 -2.98518934E-05 -1.14344379E-04 -1.38527770E-04 -4.13560431E-09
  5.30163878E-03  2.04283144E-03  1.35929047E-03 -7.96037206E-09 -4.16846178E-04
 -3.36708926E-04 -1.55214902E-04 -2.06910656E-04  1.05384084E-10 -6.33591856E-09
  9.92636924E-01  5.33351636E-02  1.79382591E-08 -7.37826027E-05 -1.55200992E-09
 -2.11485958E-02  2.21012248E-08  1.32345209E-03  1.13679319E-07 -9.76968169E-03
 -9.71049687E-03 -9.59932559E-03 -2.75723216E-08  1.44612485E-08 -1.57563539E-08
 -1.76973874E-04 -1.66477794E-04 -2.01147849E-04  3.67336896E-05 -2.01144431E-04
  3.67366211E-05  6.00702775E-03 -2.97868273E-05  1.14377573E-04 -1.38558444E-04
 -1.77738579E-08  5.30167239E-03 -2.04284296E-03  1.35933947E-03  2.65759101E-07
 -4.16867901E-04 -3.36729231E-04 -1.55217481E-04  2.06926000E-04  4.18761116E-08
 -3.53237302E-08 -1.44727895E-05  3.03483220E-03 -1.44669575E-05  3.03485211E-03
 -1.76972701E-04 -1.66450707E-04 -2.01143258E-04  3.67816708E-05 -2.01140622E-04
  3.67468961E-05  7.11850729E-01  3.83864326E-02  1.32059255E-04 -6.82656765E-05
 -1.31082145E-08 -1.37253211E-02 -1.08478345E-03 -1.64070965E-07  6.92019289E-08
 -7.12175462E-03 -7.08466867E-03 -7.01648694E-03 -4.77995161E-05  2.58755456E-09
 -2.33828830E-09 -1.25178490E-04 -1.19296338E-05  2.45599788E-04  3.11092703E-06
 -1.66671866E-08  8.80827831E-05 -2.91960402E-03 -2.15837362E-05  1.91410861E-07
 -6.57632053E-06 -3.91950447E-06 -7.52747198E-07 -2.36570823E-04 -2.61532227E-08
  1.66181309E-08 -1.04082045E-04  1.67383787E-03 -3.80119051E-05  2.36886516E-03
 -3.80019389E-05  2.36884379E-03 -6.91748942E-01 -3.73134641E-02  1.34634646E-04
  6.86730281E-05 -1.10969119E-08  1.33736114E-02 -1.07773231E-03 -1.33682116E-05
  1.26293629E-07  6.91858413E-03  6.88191149E-03  6.81296716E-03 -4.64352794E-05
 -1.02099913E-08  1.48248642E-08 -3.38786958E-06  6.06446898E-07 -3.38617326E-06
  6.15893729E-07  1.00544701E-04 -1.60867895E-03  3.42276322E-05 -2.31497243E-03
  3.42198800E-05 -2.31492336E-03  6.91634147E-01  3.69121943E-02 -9.18132770E-05
  1.55807646E-05  1.30267265E-08 -1.20826099E-02 -2.24742838E-04 -4.73828770E-04
 -4.97600696E-08 -6.99116632E-03 -6.97796485E-03 -7.00533027E-03 -4.57173980E-05
 -3.63884477E-09  8.06853411E-09 -8.80415622E-03 -8.36071965E-04 -3.54331194E-06
  2.18266830E-04  2.74493718E-08  6.14829568E-03  4.18436747E-05 -1.50475830E-03
 -1.88495128E-07 -4.58806648E-04 -2.73451444E-04 -5.12143255E-05  3.39684759E-06
  3.18488154E-08 -2.81870279E-08 -1.20890739E-04  2.25154782E-03 -1.31969819E-04
  1.84811879E-03 -1.31972374E-04  1.84815056E-03  7.11739155E-01  3.79965344E-02
  8.79917267E-05  1.36286767E-05 -9.59965455E-09 -1.24708347E-02  2.55646982E-04
 -4.73668772E-04 -3.03563032E-08 -7.19227051E-03 -7.17802620E-03 -7.20343541E-03
  4.70363971E-05  4.08271443E-09  7.82245178E-10 -2.36152488E-04  4.26233493E-05
 -2.36146948E-04  4.26489854E-05 -1.23798087E-04  2.29855738E-03 -1.32996365E-04
  1.91518506E-03 -1.32999675E-04  1.91522460E-03 -1.09551036E-01  2.03014386E-01
  4.99229259E-02  2.54744401E-02 -4.48150452E-07  1.74588965E-01  8.37368953E-03
  3.36411379E-03  8.30631272E-09  4.55897929E-03  9.48876395E-04 -6.74525860E-04
  3.13234030E-03 -7.45706347E-08  1.72420103E-08 -1.46958851E-01  2.74535269E-01
  4.08680557E-06 -3.92562448E-02 -3.54672318E-06  2.29881988E-01 -2.13141184E-07
 -2.84703128E-03  1.68845768E-07  2.30473383E-03  7.40840614E-04 -1.10538349E-03
 -4.52296995E-07 -3.43436075E-07  1.86198906E-07  5.55642857E-02  9.43148398E-03
  5.86721966E-02  1.12848581E-02  5.86725053E-02  1.12846919E-02 -1.09556108E-01
  2.03024170E-01 -4.99244600E-02  2.54770814E-02  6.31313222E-06  1.74596999E-01
 -8.37248468E-03  3.36474774E-03  8.61552796E-07  4.55893077E-03  9.48589002E-04
 -6.74487410E-04 -3.13287009E-03 -7.81883285E-07  4.25977823E-07  7.74845617E-02
  1.24976870E-02  7.74850037E-02  1.24975248E-02  5.55659245E-02  9.43123292E-03
  5.86742451E-02  1.12850651E-02  5.86743927E-02  1.12850325E-02 -1.41729870E-01
  2.70259830E-01 -2.77062201E-02  9.39828021E-05  2.57325447E-06  2.66724229E-01
 -1.60522637E-02 -3.96657241E-03  1.21010707E-06 -2.43259324E-03  1.81553053E-03
  2.65380709E-03 -2.89700782E-03  1.33059848E-07  1.63060821E-07 -8.38024963E-07
  1.18903343E-06 -1.44957750E-01  1.59072621E-06  1.05751174E-05  1.76582182E-06
 -4.16009048E-02  6.44306402E-07  2.85933452E-06  1.27933159E-07  5.21082035E-08
  1.16864389E-07  1.21360886E-02  1.22945261E-06 -8.43587878E-07  1.03617579E-01
  2.85667383E-02  9.45429819E-02  2.41762923E-02  9.45431522E-02  2.41761994E-02
  1.41725845E-01 -2.70252211E-01 -2.77082698E-02 -9.43061723E-05  1.90921479E-06
 -2.66716252E-01 -1.60546654E-02  3.96677002E-03  1.71930566E-06  2.43241779E-03
 -1.81491970E-03 -2.65396773E-03 -2.89636136E-03 -6.39878360E-07  3.65314067E-07
  1.18305601E-06  2.54589335E-07  1.66594086E-06  5.99423336E-07 -1.03614035E-01
 -2.85652960E-02 -9.45409238E-02 -2.41757320E-02 -9.45402357E-02 -2.41750891E-02
  8.11080276E-02 -1.59024841E-01  9.60814920E-02  1.03829306E-01  4.18341310E-06
 -1.77067267E-01  3.15995608E-02  3.95721573E-02  1.91935451E-06  4.90052390E-03