 Entering Gaussian System, Link 0=g16
 Initial command:
 /software/software/Gaussian/16-B.01/g16/l1.exe "/local/tmp/Gau-1821.inp" -scrdir="/local/tmp/"
 Entering Link 1 = /software/software/Gaussian/16-B.01/g16/l1.exe PID=      1822.
  
 Copyright (c) 1988-2017, Gaussian, Inc.  All Rights Reserved.
  
 This is part of the Gaussian(R) 16 program.  It is based on
 the Gaussian(R) 09 system (copyright 2009, Gaussian, Inc.),
 the Gaussian(R) 03 system (copyright 2003, Gaussian, Inc.),
 the Gaussian(R) 98 system (copyright 1998, Gaussian, Inc.),
 the Gaussian(R) 94 system (copyright 1995, Gaussian, Inc.),
 the Gaussian 92(TM) system (copyright 1992, Gaussian, Inc.),
 the Gaussian 90(TM) system (copyright 1990, Gaussian, Inc.),
 the Gaussian 88(TM) system (copyright 1988, Gaussian, Inc.),
 the Gaussian 86(TM) system (copyright 1986, Carnegie Mellon
 University), and the Gaussian 82(TM) system (copyright 1983,
 Carnegie Mellon University). Gaussian is a federally registered
 trademark of Gaussian, Inc.
  
 This software contains proprietary and confidential information,
 including trade secrets, belonging to Gaussian, Inc.
  
 This software is provided under written license and may be
 used, copied, transmitted, or stored only in accord with that
 written license.
  
 The following legend is applicable only to US Government
 contracts under FAR:
  
                    RESTRICTED RIGHTS LEGEND
  
 Use, reproduction and disclosure by the US Government is
 subject to restrictions as set forth in subparagraphs (a)
 and (c) of the Commercial Computer Software - Restricted
 Rights clause in FAR 52.227-19.
  
 Gaussian, Inc.
 340 Quinnipiac St., Bldg. 40, Wallingford CT 06492
  
  
 ---------------------------------------------------------------
 Warning -- This program may not be used in any manner that
 competes with the business of Gaussian, Inc. or will provide
 assistance to any competitor of Gaussian, Inc.  The licensee
 of this program is prohibited from giving any competitor of
 Gaussian, Inc. access to this program.  By using this program,
 the user acknowledges that Gaussian, Inc. is engaged in the
 business of creating and licensing software in the field of
 computational chemistry and represents and warrants to the
 licensee that it is not a competitor of Gaussian, Inc. and that
 it will not use this program in any manner prohibited above.
 ---------------------------------------------------------------
  

 Cite this work as:
 Gaussian 16, Revision B.01,
 M. J. Frisch, G. W. Trucks, H. B. Schlegel, G. E. Scuseria, 
 M. A. Robb, J. R. Cheeseman, G. Scalmani, V. Barone, 
 G. A. Petersson, H. Nakatsuji, X. Li, M. Caricato, A. V. Marenich, 
 J. Bloino, B. G. Janesko, R. Gomperts, B. Mennucci, H. P. Hratchian, 
 J. V. Ortiz, A. F. Izmaylov, J. L. Sonnenberg, D. Williams-Young, 
 F. Ding, F. Lipparini, F. Egidi, J. Goings, B. Peng, A. Petrone, 
 T. Henderson, D. Ranasinghe, V. G. Zakrzewski, J. Gao, N. Rega, 
 G. Zheng, W. Liang, M. Hada, M. Ehara, K. Toyota, R. Fukuda, 
 J. Hasegawa, M. Ishida, T. Nakajima, Y. Honda, O. Kitao, H. Nakai, 
 T. Vreven, K. Throssell, J. A. Montgomery, Jr., J. E. Peralta, 
 F. Ogliaro, M. J. Bearpark, J. J. Heyd, E. N. Brothers, K. N. Kudin, 
 V. N. Staroverov, T. A. Keith, R. Kobayashi, J. Normand, 
 K. Raghavachari, A. P. Rendell, J. C. Burant, S. S. Iyengar, 
 J. Tomasi, M. Cossi, J. M. Millam, M. Klene, C. Adamo, R. Cammi, 
 J. W. Ochterski, R. L. Martin, K. Morokuma, O. Farkas, 
 J. B. Foresman, and D. J. Fox, Gaussian, Inc., Wallingford CT, 2016.
 
 ******************************************
 Gaussian 16:  ES64L-G16RevB.01 20-Dec-2017
                21-Oct-2020 
 ******************************************
 %nprocshared=24
 Will use up to   24 processors via shared memory.
 %mem=4000MB
 %chk=CC_H8C3_d91b46644317dee9c2b868166c66a18c~1.chk
 ------------------------------------------------------------
 #Opt=Modredundant PBEPBE EmpiricalDispersion=GD3BJ 6-31+G(D)
 ------------------------------------------------------------
 1/18=120,19=15,26=3,38=1/1,3;
 2/9=110,12=2,17=6,18=5,40=1/2;
 3/5=1,6=6,7=11,11=2,25=1,30=1,71=1,74=1009,124=41/1,2,3;
 4//1;
 5/5=2,38=5/2;
 6/7=2,8=2,9=2,10=2,28=1/1;
 7//1,2,3,16;
 1/18=20,19=15,26=3/3(2);
 2/9=110/2;
 99//99;
 2/9=110/2;
 3/5=1,6=6,7=11,11=2,25=1,30=1,71=1,74=1009,124=41/1,2,3;
 4/5=5,16=3,69=1/1;
 5/5=2,38=5/2;
 7//1,2,3,16;
 1/18=20,19=15,26=3/3(-5);
 2/9=110/2;
 6/7=2,8=2,9=2,10=2,19=2,28=1/1;
 99/9=1/99;
 ------------------------------------------
 CC_H8C3_d91b46644317dee9c2b868166c66a18c~1
 ------------------------------------------
 Symbolic Z-matrix:
 Charge =  0 Multiplicity = 1
 C                    -1.27761  -0.2599    0.00006 
 C                     0.00001   0.58726   0.00006 
 H                    -2.18435   0.36949   0.0002 
 H                    -1.32255  -0.91275  -0.8903 
 H                    -1.32241  -0.91294   0.8903 
 C                     1.2776   -0.2599   -0.00012 
 H                    -0.00006   1.25393  -0.8832 
 H                     0.00006   1.25373   0.88347 
 H                     2.18436   0.36947  -0.00017 
 H                     1.32258  -0.91289   0.89014 
 H                     1.32241  -0.91278  -0.89046 
 
 The following ModRedundant input section has been read:
 D       3       1       2       6 S  23 15.000                                
 

 GradGradGradGradGradGradGradGradGradGradGradGradGradGradGradGradGradGrad
 Berny optimization.
 Initialization pass.
                           ----------------------------
                           !    Initial Parameters    !
                           ! (Angstroms and Degrees)  !
 --------------------------                            --------------------------
 ! Name  Definition              Value          Derivative Info.                !
 --------------------------------------------------------------------------------
 ! R1    R(1,2)                  1.533          estimate D2E/DX2                !
 ! R2    R(1,3)                  1.1038         estimate D2E/DX2                !
 ! R3    R(1,4)                  1.105          estimate D2E/DX2                !
 ! R4    R(1,5)                  1.105          estimate D2E/DX2                !
 ! R5    R(2,6)                  1.5329         estimate D2E/DX2                !
 ! R6    R(2,7)                  1.1066         estimate D2E/DX2                !
 ! R7    R(2,8)                  1.1066         estimate D2E/DX2                !
 ! R8    R(6,9)                  1.1038         estimate D2E/DX2                !
 ! R9    R(6,10)                 1.105          estimate D2E/DX2                !
 ! R10   R(6,11)                 1.105          estimate D2E/DX2                !
 ! A1    A(2,1,3)              111.6867         estimate D2E/DX2                !
 ! A2    A(2,1,4)              111.1248         estimate D2E/DX2                !
 ! A3    A(2,1,5)              111.1244         estimate D2E/DX2                !
 ! A4    A(3,1,4)              107.6737         estimate D2E/DX2                !
 ! A5    A(3,1,5)              107.6734         estimate D2E/DX2                !
 ! A6    A(4,1,5)              107.3586         estimate D2E/DX2                !
 ! A7    A(1,2,6)              112.9043         estimate D2E/DX2                !
 ! A8    A(1,2,7)              109.4433         estimate D2E/DX2                !
 ! A9    A(1,2,8)              109.4427         estimate D2E/DX2                !
 ! A10   A(6,2,7)              109.4443         estimate D2E/DX2                !
 ! A11   A(6,2,8)              109.4441         estimate D2E/DX2                !
 ! A12   A(7,2,8)              105.9232         estimate D2E/DX2                !
 ! A13   A(2,6,9)              111.6876         estimate D2E/DX2                !
 ! A14   A(2,6,10)             111.1258         estimate D2E/DX2                !
 ! A15   A(2,6,11)             111.126          estimate D2E/DX2                !
 ! A16   A(9,6,10)             107.6714         estimate D2E/DX2                !
 ! A17   A(9,6,11)             107.6711         estimate D2E/DX2                !
 ! A18   A(10,6,11)            107.3594         estimate D2E/DX2                !
 ! D1    D(3,1,2,6)            179.9998         Scan                            !
 ! D2    D(3,1,2,7)            -57.8335         estimate D2E/DX2                !
 ! D3    D(3,1,2,8)             57.8337         estimate D2E/DX2                !
 ! D4    D(4,1,2,6)            -59.7413         estimate D2E/DX2                !
 ! D5    D(4,1,2,7)             62.4254         estimate D2E/DX2                !
 ! D6    D(4,1,2,8)            178.0926         estimate D2E/DX2                !
 ! D7    D(5,1,2,6)             59.7415         estimate D2E/DX2                !
 ! D8    D(5,1,2,7)           -178.0919         estimate D2E/DX2                !
 ! D9    D(5,1,2,8)            -62.4246         estimate D2E/DX2                !
 ! D10   D(1,2,6,9)            179.997          estimate D2E/DX2                !
 ! D11   D(1,2,6,10)           -59.7457         estimate D2E/DX2                !
 ! D12   D(1,2,6,11)            59.74           estimate D2E/DX2                !
 ! D13   D(7,2,6,9)             57.8308         estimate D2E/DX2                !
 ! D14   D(7,2,6,10)           178.0882         estimate D2E/DX2                !
 ! D15   D(7,2,6,11)           -62.4262         estimate D2E/DX2                !
 ! D16   D(8,2,6,9)            -57.8377         estimate D2E/DX2                !
 ! D17   D(8,2,6,10)            62.4196         estimate D2E/DX2                !
 ! D18   D(8,2,6,11)          -178.0947         estimate D2E/DX2                !
 --------------------------------------------------------------------------------
 Trust Radius=3.00D-01 FncErr=1.00D-07 GrdErr=1.00D-06 EigMax=2.50D+02 EigMin=1.00D-04
 Number of optimizations in scan=  24
 Number of steps in this run=     56 maximum allowed number of steps=    100.
 GradGradGradGradGradGradGradGradGradGradGradGradGradGradGradGradGradGrad

                          Input orientation:                          
 ---------------------------------------------------------------------
 Center     Atomic      Atomic             Coordinates (Angstroms)
 Number     Number       Type             X           Y           Z
 ---------------------------------------------------------------------
      1          6           0       -1.277611   -0.259902    0.000063
      2          6           0        0.000008    0.587261    0.000061
      3          1           0       -2.184347    0.369493    0.000197
      4          1           0       -1.322546   -0.912754   -0.890295
      5          1           0       -1.322414   -0.912935    0.890295
      6          6           0        1.277597   -0.259903   -0.000118
      7          1           0       -0.000061    1.253929   -0.883200
      8          1           0        0.000059    1.253732    0.883470
      9          1           0        2.184357    0.369473   -0.000170
     10          1           0        1.322580   -0.912892    0.890136
     11          1           0        1.322407   -0.912781   -0.890463
 ---------------------------------------------------------------------
                    Distance matrix (angstroms):
                    1          2          3          4          5
     1  C    0.000000
     2  C    1.532969   0.000000
     3  H    1.103770   2.195183   0.000000
     4  H    1.104976   2.189047   1.783209   0.000000
     5  H    1.104976   2.189042   1.783206   1.780590   0.000000
     6  C    2.555208   1.532945   3.518692   2.824778   2.824773
     7  H    2.168864   1.106615   2.516689   2.538411   3.096644
     8  H    2.168856   1.106614   2.516680   3.096641   2.538391
     9  H    3.518712   2.195179   4.368704   3.838593   3.838612
    10  H    2.824822   2.189038   3.838625   3.188515   2.644994
    11  H    2.824780   2.189040   3.838597   2.644953   3.188444
                    6          7          8          9         10
     6  C    0.000000
     7  H    2.168855   0.000000
     8  H    2.168853   1.766670   0.000000
     9  H    1.103779   2.516682   2.516722   0.000000
    10  H    1.104975   3.096645   2.538379   1.783189   0.000000
    11  H    1.104976   2.538426   3.096647   1.783187   1.780599
                   11
    11  H    0.000000
 Stoichiometry    C3H8
 Framework group  C1[X(C3H8)]
 Deg. of freedom    27
 Full point group                 C1      NOp   1
 Largest Abelian subgroup         C1      NOp   1
 Largest concise Abelian subgroup C1      NOp   1
                         Standard orientation:                         
 ---------------------------------------------------------------------
 Center     Atomic      Atomic             Coordinates (Angstroms)
 Number     Number       Type             X           Y           Z
 ---------------------------------------------------------------------
      1          6           0        1.277611   -0.259902   -0.000063
      2          6           0       -0.000008    0.587261   -0.000061
      3          1           0        2.184347    0.369493   -0.000197
      4          1           0        1.322546   -0.912754    0.890295
      5          1           0        1.322414   -0.912935   -0.890295
      6          6           0       -1.277597   -0.259903    0.000118
      7          1           0        0.000061    1.253929    0.883200
      8          1           0       -0.000059    1.253732   -0.883470
      9          1           0       -2.184357    0.369473    0.000170
     10          1           0       -1.322580   -0.912892   -0.890136
     11          1           0       -1.322407   -0.912781    0.890463
 ---------------------------------------------------------------------
 Rotational constants (GHZ):          29.1666695           8.3381133           7.3883881
 Standard basis: 6-31+G(d) (6D, 7F)
 There are    73 symmetry adapted cartesian basis functions of A   symmetry.
 There are    73 symmetry adapted basis functions of A   symmetry.
    73 basis functions,   128 primitive gaussians,    73 cartesian basis functions
    13 alpha electrons       13 beta electrons
       nuclear repulsion energy        81.9900330615 Hartrees.
 NAtoms=   11 NActive=   11 NUniq=   11 SFac= 1.00D+00 NAtFMM=   60 NAOKFM=F Big=F
 Integral buffers will be    131072 words long.
 Raffenetti 2 integral format.
 Two-electron integral symmetry is turned on.
 Nuclear repulsion after empirical dispersion term =       81.9840187644 Hartrees.
 One-electron integrals computed using PRISM.
 NBasis=    73 RedAO= T EigKep=  2.20D-04  NBF=    73
 NBsUse=    73 1.00D-06 EigRej= -1.00D+00 NBFU=    73
 ExpMin= 4.38D-02 ExpMax= 3.05D+03 ExpMxC= 4.57D+02 IAcc=3 IRadAn=         5 AccDes= 0.00D+00
 Harris functional with IExCor= 1009 and IRadAn=       5 diagonalized for initial guess.
 HarFok:  IExCor= 1009 AccDes= 0.00D+00 IRadAn=         5 IDoV= 1 UseB2=F ITyADJ=14
 ICtDFT=  3500011 ScaDFX=  1.000000  1.000000  1.000000  1.000000
 FoFCou: FMM=F IPFlag=           0 FMFlag=      100000 FMFlg1=           0
         NFxFlg=           0 DoJE=T BraDBF=F KetDBF=T FulRan=T
         wScrn=  0.000000 ICntrl=       500 IOpCl=  0 I1Cent=   200000004 NGrid=           0
         NMat0=    1 NMatS0=      1 NMatT0=    0 NMatD0=    1 NMtDS0=    0 NMtDT0=    0
 Petite list used in FoFCou.
 Keep J ints in memory in canonical form, NReq=25192566.
 Requested convergence on RMS density matrix=1.00D-08 within 128 cycles.
 Requested convergence on MAX density matrix=1.00D-06.
 Requested convergence on             energy=1.00D-06.
 No special actions if energy rises.
 SCF Done:  E(RPBE-PBE) =  -118.965908232     A.U. after   10 cycles
            NFock= 10  Conv=0.27D-08     -V/T= 2.0112

 **********************************************************************

            Population analysis using the SCF Density.

 **********************************************************************

 Orbital symmetries:
       Occupied  (A) (A) (A) (A) (A) (A) (A) (A) (A) (A) (A) (A)
                 (A)
       Virtual   (A) (A) (A) (A) (A) (A) (A) (A) (A) (A) (A) (A)
                 (A) (A) (A) (A) (A) (A) (A) (A) (A) (A) (A) (A)
                 (A) (A) (A) (A) (A) (A) (A) (A) (A) (A) (A) (A)
                 (A) (A) (A) (A) (A) (A) (A) (A) (A) (A) (A) (A)
                 (A) (A) (A) (A) (A) (A) (A) (A) (A) (A) (A) (A)
 The electronic state is 1-A.
 Alpha  occ. eigenvalues --   -9.89854  -9.88929  -9.88929  -0.70504  -0.61137
 Alpha  occ. eigenvalues --   -0.52198  -0.40502  -0.38679  -0.35099  -0.33318
 Alpha  occ. eigenvalues --   -0.29517  -0.29347  -0.28309
 Alpha virt. eigenvalues --    0.00261   0.02048   0.02450   0.03299   0.05808
 Alpha virt. eigenvalues --    0.06723   0.07395   0.07479   0.08373   0.10282
 Alpha virt. eigenvalues --    0.11062   0.13916   0.16523   0.17200   0.17256
 Alpha virt. eigenvalues --    0.21755   0.22088   0.22243   0.24752   0.28144
 Alpha virt. eigenvalues --    0.30420   0.31728   0.57270   0.59833   0.61369
 Alpha virt. eigenvalues --    0.62435   0.64747   0.65515   0.68334   0.69074
 Alpha virt. eigenvalues --    0.78893   0.88176   0.89818   0.91749   0.93868
 Alpha virt. eigenvalues --    0.96299   1.00347   1.05530   1.06471   1.07332
 Alpha virt. eigenvalues --    1.34917   1.39753   1.42182   1.52512   1.67978
 Alpha virt. eigenvalues --    1.82480   1.86055   1.91578   1.96904   2.03664
 Alpha virt. eigenvalues --    2.16137   2.18164   2.25559   2.31434   2.33932
 Alpha virt. eigenvalues --    2.52065   2.61614   4.08538   4.21445   4.39016
          Condensed to atoms (all electrons):
               1          2          3          4          5          6
     1  C    5.605051   0.109483   0.391121   0.398684   0.398685  -0.108202
     2  C    0.109483   5.640815  -0.065651  -0.052595  -0.052596   0.109482
     3  H    0.391121  -0.065651   0.502140  -0.027249  -0.027249   0.019020
     4  H    0.398684  -0.052595  -0.027249   0.504758  -0.031560  -0.009791
     5  H    0.398685  -0.052596  -0.027249  -0.031560   0.504759  -0.009791
     6  C   -0.108202   0.109482   0.019020  -0.009791  -0.009791   5.605055
     7  H   -0.053015   0.409786  -0.002871  -0.004953   0.004560  -0.053014
     8  H   -0.053016   0.409785  -0.002871   0.004560  -0.004954  -0.053014
     9  H    0.019020  -0.065653  -0.000129  -0.000008  -0.000008   0.391120
    10  H   -0.009794  -0.052593  -0.000008  -0.000449   0.003610   0.398686
    11  H   -0.009792  -0.052596  -0.000008   0.003610  -0.000449   0.398686
               7          8          9         10         11
     1  C   -0.053015  -0.053016   0.019020  -0.009794  -0.009792
     2  C    0.409786   0.409785  -0.065653  -0.052593  -0.052596
     3  H   -0.002871  -0.002871  -0.000129  -0.000008  -0.000008
     4  H   -0.004953   0.004560  -0.000008  -0.000449   0.003610
     5  H    0.004560  -0.004954  -0.000008   0.003610  -0.000449
     6  C   -0.053014  -0.053014   0.391120   0.398686   0.398686
     7  H    0.524869  -0.035417  -0.002872   0.004560  -0.004953
     8  H   -0.035417   0.524870  -0.002871  -0.004954   0.004560
     9  H   -0.002872  -0.002871   0.502148  -0.027251  -0.027251
    10  H    0.004560  -0.004954  -0.027251   0.504757  -0.031559
    11  H   -0.004953   0.004560  -0.027251  -0.031559   0.504759
 Mulliken charges:
               1
     1  C   -0.688226
     2  C   -0.337667
     3  H    0.213756
     4  H    0.214994
     5  H    0.214994
     6  C   -0.688236
     7  H    0.213320
     8  H    0.213321
     9  H    0.213755
    10  H    0.214995
    11  H    0.214994
 Sum of Mulliken charges =  -0.00000
 Mulliken charges with hydrogens summed into heavy atoms:
               1
     1  C   -0.044483
     2  C    0.088975
     6  C   -0.044492
 Electronic spatial extent (au):  <R**2>=            229.8296
 Charge=             -0.0000 electrons
 Dipole moment (field-independent basis, Debye):
    X=             -0.0000    Y=              0.0903    Z=             -0.0000  Tot=              0.0903
 Quadrupole moment (field-independent basis, Debye-Ang):
   XX=            -22.6172   YY=            -22.2515   ZZ=            -21.7597
   XY=              0.0001   XZ=              0.0000   YZ=              0.0001
 Traceless Quadrupole moment (field-independent basis, Debye-Ang):
   XX=             -0.4077   YY=             -0.0420   ZZ=              0.4497
   XY=              0.0001   XZ=              0.0000   YZ=              0.0001
 Octapole moment (field-independent basis, Debye-Ang**2):
  XXX=             -0.0002  YYY=              0.4544  ZZZ=              0.0001  XYY=              0.0001
  XXY=              1.5949  XXZ=             -0.0001  XZZ=             -0.0001  YZZ=             -0.5031
  YYZ=             -0.0001  XYZ=             -0.0002
 Hexadecapole moment (field-independent basis, Debye-Ang**3):
 XXXX=           -213.2221 YYYY=            -76.4144 ZZZZ=            -47.0394 XXXY=              0.0007
 XXXZ=              0.0055 YYYX=              0.0001 YYYZ=              0.0022 ZZZX=              0.0063
 ZZZY=              0.0009 XXYY=            -47.7501 XXZZ=            -44.3504 YYZZ=            -18.3762
 XXYZ=              0.0005 YYXZ=              0.0020 ZZXY=              0.0001
 N-N= 8.198401876440D+01 E-N=-4.382209154351D+02  KE= 1.176469251210D+02
 Calling FoFJK, ICntrl=      2527 FMM=F ISym2X=0 I1Cent= 0 IOpClX= 0 NMat=1 NMatS=1 NMatT=0.
 ***** Axes restored to original set *****
 -------------------------------------------------------------------
 Center     Atomic                   Forces (Hartrees/Bohr)
 Number     Number              X              Y              Z
 -------------------------------------------------------------------
      1        6          -0.000057629   -0.000176799    0.000000379
      2        6          -0.000009606    0.000468782    0.000000009
      3        1          -0.000304777    0.000232567   -0.000000146
      4        1           0.000075015   -0.000170574   -0.000361917
      5        1           0.000074931   -0.000171033    0.000361726
      6        6           0.000076142   -0.000177299   -0.000000409
      7        1           0.000000399    0.000053079   -0.000327276
      8        1           0.000001068    0.000053880    0.000327180
      9        1           0.000299927    0.000232542    0.000000442
     10        1          -0.000077577   -0.000172808    0.000361364
     11        1          -0.000077892   -0.000172337   -0.000361350
 -------------------------------------------------------------------
 Cartesian Forces:  Max     0.000468782 RMS     0.000210826

 GradGradGradGradGradGradGradGradGradGradGradGradGradGradGradGradGradGrad
 Berny optimization.
 FormGI is forming the generalized inverse of G from B-inverse, IUseBI=4.
 Internal  Forces:  Max     0.000390107 RMS     0.000187421
 Search for a local minimum.
 Step number   1 out of a maximum of   56 on scan point     1 out of    24
 All quantities printed in internal units (Hartrees-Bohrs-Radians)
 Mixed Optimization -- En-DIIS/RFO-DIIS
 Second derivative matrix not updated -- first step.
 ITU=  0
     Eigenvalues ---    0.00330   0.01576   0.04274   0.04786   0.05401
     Eigenvalues ---    0.05482   0.05482   0.08386   0.11650   0.16000
     Eigenvalues ---    0.16000   0.16000   0.16000   0.16000   0.16000
     Eigenvalues ---    0.21887   0.29151   0.29153   0.32961   0.32961
     Eigenvalues ---    0.33138   0.33138   0.33138   0.33138   0.33268
     Eigenvalues ---    0.332691000.000001000.000001000.000001000.00000
     Eigenvalues --- 1000.000001000.000001000.000001000.000001000.00000
     Eigenvalues --- 1000.000001000.000001000.000001000.000001000.00000
     Eigenvalues --- 1000.000001000.000001000.000001000.000001000.00000
     Eigenvalues --- 1000.00000
 RFO step:  Lambda=-6.54831313D-06 EMin= 3.30147668D-03
 Linear search not attempted -- first point.
 Iteration  1 RMS(Cart)=  0.00143318 RMS(Int)=  0.00000126
 Iteration  2 RMS(Cart)=  0.00000195 RMS(Int)=  0.00000030
 Iteration  3 RMS(Cart)=  0.00000000 RMS(Int)=  0.00000030
 Iteration  1 RMS(Cart)=  0.00000000 RMS(Int)=  0.00000000
 Variable       Old X    -DE/DX   Delta X   Delta X   Delta X     New X
                                 (Linear)    (Quad)   (Total)
    R1        2.89689   0.00034   0.00000   0.00115   0.00115   2.89804
    R2        2.08582   0.00038   0.00000   0.00115   0.00115   2.08697
    R3        2.08810   0.00039   0.00000   0.00117   0.00117   2.08928
    R4        2.08810   0.00039   0.00000   0.00118   0.00118   2.08928
    R5        2.89685   0.00034   0.00000   0.00118   0.00118   2.89803
    R6        2.09120   0.00029   0.00000   0.00089   0.00089   2.09209
    R7        2.09120   0.00029   0.00000   0.00089   0.00089   2.09209
    R8        2.08584   0.00038   0.00000   0.00114   0.00114   2.08698
    R9        2.08810   0.00039   0.00000   0.00118   0.00118   2.08928
   R10        2.08810   0.00039   0.00000   0.00118   0.00118   2.08928
    A1        1.94930   0.00003   0.00000   0.00022   0.00022   1.94952
    A2        1.93949  -0.00014   0.00000  -0.00088  -0.00088   1.93861
    A3        1.93949  -0.00014   0.00000  -0.00087  -0.00087   1.93861
    A4        1.87926   0.00006   0.00000   0.00042   0.00042   1.87968
    A5        1.87926   0.00006   0.00000   0.00042   0.00042   1.87968
    A6        1.87376   0.00014   0.00000   0.00079   0.00078   1.87455
    A7        1.97055  -0.00033   0.00000  -0.00202  -0.00202   1.96853
    A8        1.91015   0.00008   0.00000   0.00008   0.00008   1.91023
    A9        1.91014   0.00008   0.00000   0.00009   0.00009   1.91023
   A10        1.91016   0.00008   0.00000   0.00008   0.00008   1.91024
   A11        1.91016   0.00008   0.00000   0.00008   0.00008   1.91024
   A12        1.84871   0.00003   0.00000   0.00195   0.00195   1.85066
   A13        1.94932   0.00003   0.00000   0.00022   0.00022   1.94953
   A14        1.93951  -0.00014   0.00000  -0.00089  -0.00089   1.93862
   A15        1.93951  -0.00014   0.00000  -0.00089  -0.00089   1.93862
   A16        1.87922   0.00006   0.00000   0.00045   0.00045   1.87967
   A17        1.87922   0.00007   0.00000   0.00045   0.00045   1.87967
   A18        1.87378   0.00014   0.00000   0.00077   0.00077   1.87455
    D1        3.14159   0.00000   0.00000   0.00000  -0.00000   3.14159
    D2       -1.00939  -0.00006   0.00000  -0.00122  -0.00122  -1.01061
    D3        1.00939   0.00006   0.00000   0.00122   0.00122   1.01061
    D4       -1.04268   0.00000   0.00000   0.00008   0.00008  -1.04260
    D5        1.08953  -0.00006   0.00000  -0.00114  -0.00114   1.08839
    D6        3.10830   0.00007   0.00000   0.00130   0.00130   3.10960
    D7        1.04269  -0.00000   0.00000  -0.00009  -0.00009   1.04259
    D8       -3.10829  -0.00007   0.00000  -0.00131  -0.00131  -3.10960
    D9       -1.08952   0.00006   0.00000   0.00113   0.00113  -1.08839
   D10        3.14154   0.00000   0.00000   0.00004   0.00004   3.14158
   D11       -1.04276   0.00001   0.00000   0.00014   0.00014  -1.04262
   D12        1.04266  -0.00001   0.00000  -0.00007  -0.00007   1.04259
   D13        1.00934   0.00006   0.00000   0.00126   0.00126   1.01060
   D14        3.10823   0.00007   0.00000   0.00136   0.00136   3.10959
   D15       -1.08954   0.00006   0.00000   0.00115   0.00115  -1.08839
   D16       -1.00946  -0.00006   0.00000  -0.00117  -0.00117  -1.01063
   D17        1.08943  -0.00006   0.00000  -0.00107  -0.00107   1.08836
   D18       -3.10834  -0.00007   0.00000  -0.00128  -0.00128  -3.10962
         Item               Value     Threshold  Converged?
 Maximum Force            0.000390     0.000450     YES
 RMS     Force            0.000189     0.000300     YES
 Maximum Displacement     0.003598     0.001800     NO 
 RMS     Displacement     0.001434     0.001200     NO 
 Predicted change in Energy=-3.273763D-06
 GradGradGradGradGradGradGradGradGradGradGradGradGradGradGradGradGradGrad

                          Input orientation:                          
 ---------------------------------------------------------------------
 Center     Atomic      Atomic             Coordinates (Angstroms)
 Number     Number       Type             X           Y           Z
 ---------------------------------------------------------------------
      1          6           0       -1.277259   -0.260056    0.000070
      2          6           0        0.000005    0.588741    0.000057
      3          1           0       -2.185276    0.368560    0.000201
      4          1           0       -1.320664   -0.913033   -0.891044
      5          1           0       -1.320528   -0.913208    0.891062
      6          6           0        1.277259   -0.260056   -0.000119
      7          1           0       -0.000065    1.254818   -0.884239
      8          1           0        0.000064    1.254645    0.884484
      9          1           0        2.185285    0.368551   -0.000139
     10          1           0        1.320676   -0.913197    0.890875
     11          1           0        1.320532   -0.913044   -0.891232
 ---------------------------------------------------------------------
                    Distance matrix (angstroms):
                    1          2          3          4          5
     1  C    0.000000
     2  C    1.533578   0.000000
     3  H    1.104379   2.196345   0.000000
     4  H    1.105598   2.189418   1.784476   0.000000
     5  H    1.105598   2.189417   1.784476   1.782106   0.000000
     6  C    2.554518   1.533570   3.519135   2.823000   2.822996
     7  H    2.169809   1.107085   2.518499   2.538426   3.097685
     8  H    2.169807   1.107086   2.518495   3.097685   2.538423
     9  H    3.519142   2.196346   4.370562   3.837688   3.837691
    10  H    2.823012   2.189417   3.837695   3.186206   2.641204
    11  H    2.823000   2.189417   3.837689   2.641196   3.186184
                    6          7          8          9         10
     6  C    0.000000
     7  H    2.169809   0.000000
     8  H    2.169808   1.768724   0.000000
     9  H    1.104382   2.518503   2.518513   0.000000
    10  H    1.105598   3.097689   2.538423   1.784470   0.000000
    11  H    1.105598   2.538435   3.097689   1.784469   1.782106
                   11
    11  H    0.000000
 Stoichiometry    C3H8
 Framework group  C1[X(C3H8)]
 Deg. of freedom    27
 Full point group                 C1      NOp   1
 Largest Abelian subgroup         C1      NOp   1
 Largest concise Abelian subgroup C1      NOp   1
                         Standard orientation:                         
 ---------------------------------------------------------------------
 Center     Atomic      Atomic             Coordinates (Angstroms)
 Number     Number       Type             X           Y           Z
 ---------------------------------------------------------------------
      1          6           0        1.277261   -0.260282   -0.000069
      2          6           0       -0.000002    0.588516   -0.000056
      3          1           0        2.185279    0.368333   -0.000200
      4          1           0        1.320665   -0.913260    0.891045
      5          1           0        1.320529   -0.913435   -0.891061
      6          6           0       -1.277257   -0.260281    0.000119
      7          1           0        0.000068    1.254593    0.884240
      8          1           0       -0.000062    1.254419   -0.884484
      9          1           0       -2.185283    0.368327    0.000140
     10          1           0       -1.320675   -0.913422   -0.890874
     11          1           0       -1.320531   -0.913269    0.891232
 ---------------------------------------------------------------------
 Rotational constants (GHZ):          29.1047020           8.3414137           7.3889564
 Standard basis: 6-31+G(d) (6D, 7F)
 There are    73 symmetry adapted cartesian basis functions of A   symmetry.
 There are    73 symmetry adapted basis functions of A   symmetry.
    73 basis functions,   128 primitive gaussians,    73 cartesian basis functions
    13 alpha electrons       13 beta electrons
       nuclear repulsion energy        81.9658615417 Hartrees.
 NAtoms=   11 NActive=   11 NUniq=   11 SFac= 1.00D+00 NAtFMM=   60 NAOKFM=F Big=F
 Integral buffers will be    131072 words long.
 Raffenetti 2 integral format.
 Two-electron integral symmetry is turned on.
 Nuclear repulsion after empirical dispersion term =       81.9598468252 Hartrees.
 One-electron integrals computed using PRISM.
 NBasis=    73 RedAO= T EigKep=  2.21D-04  NBF=    73
 NBsUse=    73 1.00D-06 EigRej= -1.00D+00 NBFU=    73
 Initial guess from the checkpoint file:  "CC_H8C3_d91b46644317dee9c2b868166c66a18c~1.chk"
 B after Tr=    -0.000000    0.000000    0.000000
         Rot=    1.000000   -0.000001   -0.000001    0.000001 Ang=  -0.00 deg.
 Keep J ints in memory in canonical form, NReq=25192566.
 Requested convergence on RMS density matrix=1.00D-08 within 128 cycles.
 Requested convergence on MAX density matrix=1.00D-06.
 Requested convergence on             energy=1.00D-06.
 No special actions if energy rises.
 SCF Done:  E(RPBE-PBE) =  -118.965911887     A.U. after    8 cycles
            NFock=  8  Conv=0.57D-09     -V/T= 2.0113
 Calling FoFJK, ICntrl=      2527 FMM=F ISym2X=0 I1Cent= 0 IOpClX= 0 NMat=1 NMatS=1 NMatT=0.
 ***** Axes restored to original set *****
 -------------------------------------------------------------------
 Center     Atomic                   Forces (Hartrees/Bohr)
 Number     Number              X              Y              Z
 -------------------------------------------------------------------
      1        6          -0.000101681   -0.000112119    0.000000168
      2        6          -0.000003311    0.000239365    0.000000288
      3        1           0.000000409   -0.000009315   -0.000000048
      4        1           0.000025623    0.000024449   -0.000001314
      5        1           0.000025592    0.000024471    0.000001179
      6        6           0.000107653   -0.000113119   -0.000000272
      7        1           0.000000374   -0.000046700    0.000008407
      8        1           0.000000491   -0.000046564   -0.000008585
      9        1          -0.000001937   -0.000009063    0.000000113
     10        1          -0.000026616    0.000024256    0.000001139
     11        1          -0.000026597    0.000024338   -0.000001076
 -------------------------------------------------------------------
 Cartesian Forces:  Max     0.000239365 RMS     0.000058873

 GradGradGradGradGradGradGradGradGradGradGradGradGradGradGradGradGradGrad
 Berny optimization.
 Using GEDIIS/GDIIS optimizer.
 FormGI is forming the generalized inverse of G from B-inverse, IUseBI=4.
 Internal  Forces:  Max     0.000108607 RMS     0.000032067
 Search for a local minimum.
 Step number   2 out of a maximum of   56 on scan point     1 out of    24
 All quantities printed in internal units (Hartrees-Bohrs-Radians)
 Mixed Optimization -- En-DIIS/RFO-DIIS
 Swapping is turned off.
 Update second derivatives using D2CorX and points    1    2
 DE= -3.65D-06 DEPred=-3.27D-06 R= 1.12D+00
 TightC=F SS=  1.41D+00  RLast= 6.60D-03 DXNew= 5.0454D-01 1.9787D-02
 Trust test= 1.12D+00 RLast= 6.60D-03 DXMaxT set to 3.00D-01
 ITU=  1  0
     Eigenvalues ---    0.00330   0.01580   0.04282   0.04425   0.05404
     Eigenvalues ---    0.05485   0.05490   0.08362   0.11632   0.14842
     Eigenvalues ---    0.16000   0.16000   0.16000   0.16000   0.16026
     Eigenvalues ---    0.20827   0.28120   0.29152   0.32961   0.32966
     Eigenvalues ---    0.33138   0.33138   0.33138   0.33227   0.33268
     Eigenvalues ---    0.372501000.000001000.000001000.000001000.00000
     Eigenvalues --- 1000.000001000.000001000.000001000.000001000.00000
     Eigenvalues --- 1000.000001000.000001000.000001000.000001000.00000
     Eigenvalues --- 1000.000001000.000001000.000001000.000001000.00000
     Eigenvalues --- 1000.00000
 En-DIIS/RFO-DIIS/Sim-DIIS IScMMF=       -3 using points:     2    1
 RFO step:  Lambda=-3.31494623D-07.
 DidBck=F Rises=F RFO-DIIS coefs:    1.25297   -0.25297
 Iteration  1 RMS(Cart)=  0.00055177 RMS(Int)=  0.00000022
 Iteration  2 RMS(Cart)=  0.00000024 RMS(Int)=  0.00000011
 Iteration  1 RMS(Cart)=  0.00000000 RMS(Int)=  0.00000000
 Variable       Old X    -DE/DX   Delta X   Delta X   Delta X     New X
                                 (Linear)    (Quad)   (Total)
    R1        2.89804   0.00008   0.00029   0.00007   0.00036   2.89840
    R2        2.08697  -0.00001   0.00029  -0.00027   0.00002   2.08700
    R3        2.08928  -0.00001   0.00030  -0.00030  -0.00001   2.08927
    R4        2.08928  -0.00001   0.00030  -0.00031  -0.00001   2.08927
    R5        2.89803   0.00008   0.00030   0.00007   0.00037   2.89840
    R6        2.09209  -0.00003   0.00023  -0.00031  -0.00009   2.09200
    R7        2.09209  -0.00003   0.00023  -0.00031  -0.00009   2.09200
    R8        2.08698  -0.00001   0.00029  -0.00027   0.00002   2.08700
    R9        2.08928  -0.00001   0.00030  -0.00031  -0.00001   2.08927
   R10        2.08928  -0.00001   0.00030  -0.00031  -0.00001   2.08927
    A1        1.94952   0.00003   0.00006   0.00017   0.00023   1.94975
    A2        1.93861  -0.00004  -0.00022  -0.00011  -0.00034   1.93828
    A3        1.93861  -0.00004  -0.00022  -0.00011  -0.00034   1.93828
    A4        1.87968   0.00001   0.00011   0.00001   0.00012   1.87980
    A5        1.87968   0.00001   0.00011   0.00001   0.00012   1.87980
    A6        1.87455   0.00004   0.00020   0.00004   0.00024   1.87478
    A7        1.96853  -0.00011  -0.00051  -0.00027  -0.00078   1.96775
    A8        1.91023   0.00003   0.00002   0.00006   0.00008   1.91030
    A9        1.91023   0.00003   0.00002   0.00006   0.00008   1.91030
   A10        1.91024   0.00003   0.00002   0.00005   0.00007   1.91031
   A11        1.91024   0.00003   0.00002   0.00005   0.00007   1.91031
   A12        1.85066   0.00000   0.00049   0.00008   0.00057   1.85123
   A13        1.94953   0.00003   0.00005   0.00017   0.00022   1.94975
   A14        1.93862  -0.00004  -0.00023  -0.00012  -0.00034   1.93828
   A15        1.93862  -0.00004  -0.00023  -0.00012  -0.00034   1.93828
   A16        1.87967   0.00001   0.00011   0.00001   0.00013   1.87979
   A17        1.87967   0.00001   0.00011   0.00001   0.00013   1.87979
   A18        1.87455   0.00004   0.00019   0.00004   0.00024   1.87478
    D1        3.14159   0.00000  -0.00000   0.00000  -0.00000   3.14159
    D2       -1.01061  -0.00002  -0.00031  -0.00008  -0.00039  -1.01100
    D3        1.01061   0.00002   0.00031   0.00008   0.00038   1.01099
    D4       -1.04260   0.00000   0.00002   0.00005   0.00007  -1.04253
    D5        1.08839  -0.00001  -0.00029  -0.00003  -0.00032   1.08807
    D6        3.10960   0.00002   0.00033   0.00013   0.00046   3.11006
    D7        1.04259  -0.00000  -0.00002  -0.00005  -0.00007   1.04252
    D8       -3.10960  -0.00002  -0.00033  -0.00013  -0.00046  -3.11006
    D9       -1.08839   0.00001   0.00028   0.00003   0.00031  -1.08808
   D10        3.14158   0.00000   0.00001   0.00000   0.00001   3.14159
   D11       -1.04262   0.00000   0.00004   0.00005   0.00009  -1.04253
   D12        1.04259  -0.00000  -0.00002  -0.00005  -0.00007   1.04252
   D13        1.01060   0.00002   0.00032   0.00008   0.00040   1.01099
   D14        3.10959   0.00002   0.00034   0.00013   0.00047   3.11006
   D15       -1.08839   0.00001   0.00029   0.00003   0.00032  -1.08807
   D16       -1.01063  -0.00002  -0.00030  -0.00007  -0.00037  -1.01100
   D17        1.08836  -0.00001  -0.00027  -0.00002  -0.00029   1.08807
   D18       -3.10962  -0.00002  -0.00032  -0.00012  -0.00045  -3.11006
         Item               Value     Threshold  Converged?
 Maximum Force            0.000109     0.000450     YES
 RMS     Force            0.000032     0.000300     YES
 Maximum Displacement     0.001509     0.001800     YES
 RMS     Displacement     0.000552     0.001200     YES
 Predicted change in Energy=-1.657387D-07
 Optimization completed.
    -- Stationary point found.
                           ----------------------------
                           !   Optimized Parameters   !
                           ! (Angstroms and Degrees)  !
 --------------------------                            --------------------------
 ! Name  Definition              Value          Derivative Info.                !
 --------------------------------------------------------------------------------
 ! R1    R(1,2)                  1.5336         -DE/DX =    0.0001              !
 ! R2    R(1,3)                  1.1044         -DE/DX =    0.0                 !
 ! R3    R(1,4)                  1.1056         -DE/DX =    0.0                 !
 ! R4    R(1,5)                  1.1056         -DE/DX =    0.0                 !
 ! R5    R(2,6)                  1.5336         -DE/DX =    0.0001              !
 ! R6    R(2,7)                  1.1071         -DE/DX =    0.0                 !
 ! R7    R(2,8)                  1.1071         -DE/DX =    0.0                 !
 ! R8    R(6,9)                  1.1044         -DE/DX =    0.0                 !
 ! R9    R(6,10)                 1.1056         -DE/DX =    0.0                 !
 ! R10   R(6,11)                 1.1056         -DE/DX =    0.0                 !
 ! A1    A(2,1,3)              111.6995         -DE/DX =    0.0                 !
 ! A2    A(2,1,4)              111.0743         -DE/DX =    0.0                 !
 ! A3    A(2,1,5)              111.0742         -DE/DX =    0.0                 !
 ! A4    A(3,1,4)              107.6977         -DE/DX =    0.0                 !
 ! A5    A(3,1,5)              107.6977         -DE/DX =    0.0                 !
 ! A6    A(4,1,5)              107.4035         -DE/DX =    0.0                 !
 ! A7    A(1,2,6)              112.7883         -DE/DX =   -0.0001              !
 ! A8    A(1,2,7)              109.448          -DE/DX =    0.0                 !
 ! A9    A(1,2,8)              109.4479         -DE/DX =    0.0                 !
 ! A10   A(6,2,7)              109.4486         -DE/DX =    0.0                 !
 ! A11   A(6,2,8)              109.4485         -DE/DX =    0.0                 !
 ! A12   A(7,2,8)              106.0351         -DE/DX =    0.0                 !
 ! A13   A(2,6,9)              111.7            -DE/DX =    0.0                 !
 ! A14   A(2,6,10)             111.0748         -DE/DX =    0.0                 !
 ! A15   A(2,6,11)             111.0747         -DE/DX =    0.0                 !
 ! A16   A(9,6,10)             107.697          -DE/DX =    0.0                 !
 ! A17   A(9,6,11)             107.6969         -DE/DX =    0.0                 !
 ! A18   A(10,6,11)            107.4035         -DE/DX =    0.0                 !
 ! D1    D(3,1,2,6)            179.9998         -DE/DX =    0.0                 !
 ! D2    D(3,1,2,7)            -57.9037         -DE/DX =    0.0                 !
 ! D3    D(3,1,2,8)             57.9034         -DE/DX =    0.0                 !
 ! D4    D(4,1,2,6)            -59.7366         -DE/DX =    0.0                 !
 ! D5    D(4,1,2,7)             62.36           -DE/DX =    0.0                 !
 ! D6    D(4,1,2,8)            178.1671         -DE/DX =    0.0                 !
 ! D7    D(5,1,2,6)             59.7363         -DE/DX =    0.0                 !
 ! D8    D(5,1,2,7)           -178.1672         -DE/DX =    0.0                 !
 ! D9    D(5,1,2,8)            -62.3601         -DE/DX =    0.0                 !
 ! D10   D(1,2,6,9)            179.9992         -DE/DX =    0.0                 !
 ! D11   D(1,2,6,10)           -59.7375         -DE/DX =    0.0                 !
 ! D12   D(1,2,6,11)            59.736          -DE/DX =    0.0                 !
 ! D13   D(7,2,6,9)             57.903          -DE/DX =    0.0                 !
 ! D14   D(7,2,6,10)           178.1663         -DE/DX =    0.0                 !
 ! D15   D(7,2,6,11)           -62.3602         -DE/DX =    0.0                 !
 ! D16   D(8,2,6,9)            -57.9047         -DE/DX =    0.0                 !
 ! D17   D(8,2,6,10)            62.3586         -DE/DX =    0.0                 !
 ! D18   D(8,2,6,11)          -178.1679         -DE/DX =    0.0                 !
 --------------------------------------------------------------------------------
 Iteration  1 RMS(Cart)=  0.02083655 RMS(Int)=  0.03098373
 Iteration  2 RMS(Cart)=  0.00648722 RMS(Int)=  0.03046592
 Iteration  3 RMS(Cart)=  0.00015453 RMS(Int)=  0.03046573
 Iteration  4 RMS(Cart)=  0.00000525 RMS(Int)=  0.03046573
 Iteration  5 RMS(Cart)=  0.00000022 RMS(Int)=  0.03046573
 Iteration  1 RMS(Cart)=  0.01699691 RMS(Int)=  0.01897533
 Iteration  2 RMS(Cart)=  0.01060113 RMS(Int)=  0.02108365
 Iteration  3 RMS(Cart)=  0.00660667 RMS(Int)=  0.02413702
 Iteration  4 RMS(Cart)=  0.00411498 RMS(Int)=  0.02648962
 Iteration  5 RMS(Cart)=  0.00256207 RMS(Int)=  0.02808343
 Iteration  6 RMS(Cart)=  0.00159482 RMS(Int)=  0.02911677
 Iteration  7 RMS(Cart)=  0.00099258 RMS(Int)=  0.02977408
 Iteration  8 RMS(Cart)=  0.00061770 RMS(Int)=  0.03018825
 Iteration  9 RMS(Cart)=  0.00038439 RMS(Int)=  0.03044787
 Iteration 10 RMS(Cart)=  0.00023919 RMS(Int)=  0.03061013
 Iteration 11 RMS(Cart)=  0.00014883 RMS(Int)=  0.03071137
 Iteration 12 RMS(Cart)=  0.00009261 RMS(Int)=  0.03077447
 Iteration 13 RMS(Cart)=  0.00005763 RMS(Int)=  0.03081377
 Iteration 14 RMS(Cart)=  0.00003586 RMS(Int)=  0.03083824
 Iteration 15 RMS(Cart)=  0.00002231 RMS(Int)=  0.03085347
 Iteration 16 RMS(Cart)=  0.00001388 RMS(Int)=  0.03086295
 Iteration 17 RMS(Cart)=  0.00000864 RMS(Int)=  0.03086885
 Iteration 18 RMS(Cart)=  0.00000537 RMS(Int)=  0.03087252
 Iteration 19 RMS(Cart)=  0.00000334 RMS(Int)=  0.03087480
 Iteration 20 RMS(Cart)=  0.00000208 RMS(Int)=  0.03087622
 Iteration 21 RMS(Cart)=  0.00000129 RMS(Int)=  0.03087711
 Iteration 22 RMS(Cart)=  0.00000081 RMS(Int)=  0.03087766
 GradGradGradGradGradGradGradGradGradGradGradGradGradGradGradGradGradGrad

                          Input orientation:                          
 ---------------------------------------------------------------------
 Center     Atomic      Atomic             Coordinates (Angstroms)
 Number     Number       Type             X           Y           Z
 ---------------------------------------------------------------------
      1          6           0       -1.276844   -0.256492    0.052405
      2          6           0        0.000897    0.591826    0.066388
      3          1           0       -2.175862    0.354772   -0.151558
      4          1           0       -1.242533   -0.914457   -0.835730
      5          1           0       -1.394126   -0.906297    0.939444
      6          6           0        1.273765   -0.259828   -0.020878
      7          1           0        0.038000    1.221619   -0.843457
      8          1           0       -0.035086    1.290744    0.924312
      9          1           0        2.182968    0.366309   -0.053748
     10          1           0        1.361222   -0.933965    0.851177
     11          1           0        1.267628   -0.891512   -0.928378
 ---------------------------------------------------------------------
                    Distance matrix (angstroms):
                    1          2          3          4          5
     1  C    0.000000
     2  C    1.533773   0.000000
     3  H    1.106110   2.200449   0.000000
     4  H    1.105839   2.151470   1.717596   0.000000
     5  H    1.105822   2.225464   1.841655   1.781654   0.000000
     6  C    2.551664   1.533989   3.506386   2.724754   2.908227
     7  H    2.171680   1.107174   2.476154   2.490511   3.123740
     8  H    2.167054   1.107166   2.572249   3.068972   2.583449
     9  H    3.517022   2.196980   4.359943   3.739775   3.924482
    10  H    2.838380   2.189615   3.895804   3.102512   2.756901
    11  H    2.799914   2.189624   3.743567   2.511975   3.251755
                    6          7          8          9         10
     6  C    0.000000
     7  H    2.097245   0.000000
     8  H    2.238471   1.770630   0.000000
     9  H    1.104435   2.440509   2.594407   0.000000
    10  H    1.105708   3.044544   2.627615   1.784620   0.000000
    11  H    1.105721   2.446328   3.145118   1.784640   1.782520
                   11
    11  H    0.000000
 Stoichiometry    C3H8
 Framework group  C1[X(C3H8)]
 Deg. of freedom    27
 Full point group                 C1      NOp   1
 Largest Abelian subgroup         C1      NOp   1
 Largest concise Abelian subgroup C1      NOp   1
                         Standard orientation:                         
 ---------------------------------------------------------------------
 Center     Atomic      Atomic             Coordinates (Angstroms)
 Number     Number       Type             X           Y           Z
 ---------------------------------------------------------------------
      1          6           0        1.276903   -0.257331   -0.016556
      2          6           0       -0.000348    0.591830   -0.020703
      3          1           0        2.170998    0.343271    0.235139
      4          1           0        1.222731   -0.954941    0.839764
      5          1           0        1.414229   -0.866260   -0.929348
      6          6           0       -1.274709   -0.261829   -0.000875
      7          1           0       -0.058025    1.179664    0.915758
      8          1           0        0.054810    1.328977   -0.844953
      9          1           0       -2.184530    0.362939    0.039961
     10          1           0       -1.342403   -0.895572   -0.904411
     11          1           0       -1.288884   -0.934099    0.876889
 ---------------------------------------------------------------------
 Rotational constants (GHZ):          29.0069183           8.3598951           7.4040645
 Standard basis: 6-31+G(d) (6D, 7F)
 There are    73 symmetry adapted cartesian basis functions of A   symmetry.
 There are    73 symmetry adapted basis functions of A   symmetry.
    73 basis functions,   128 primitive gaussians,    73 cartesian basis functions
    13 alpha electrons       13 beta electrons
       nuclear repulsion energy        81.9907589932 Hartrees.
 NAtoms=   11 NActive=   11 NUniq=   11 SFac= 1.00D+00 NAtFMM=   60 NAOKFM=F Big=F
 Integral buffers will be    131072 words long.
 Raffenetti 2 integral format.
 Two-electron integral symmetry is turned on.
 Nuclear repulsion after empirical dispersion term =       81.9847402122 Hartrees.
 One-electron integrals computed using PRISM.
 NBasis=    73 RedAO= T EigKep=  2.25D-04  NBF=    73
 NBsUse=    73 1.00D-06 EigRej= -1.00D+00 NBFU=    73
 Initial guess from the checkpoint file:  "CC_H8C3_d91b46644317dee9c2b868166c66a18c~1.chk"
 B after Tr=    -0.000000   -0.000000   -0.000000
         Rot=    0.999835   -0.017329    0.005525   -0.000235 Ang=  -2.08 deg.
 Keep J ints in memory in canonical form, NReq=25192566.
 Requested convergence on RMS density matrix=1.00D-08 within 128 cycles.
 Requested convergence on MAX density matrix=1.00D-06.
 Requested convergence on             energy=1.00D-06.
 No special actions if energy rises.
 SCF Done:  E(RPBE-PBE) =  -118.962638885     A.U. after    9 cycles
            NFock=  9  Conv=0.87D-08     -V/T= 2.0113
 Calling FoFJK, ICntrl=      2527 FMM=F ISym2X=0 I1Cent= 0 IOpClX= 0 NMat=1 NMatS=1 NMatT=0.
 ***** Axes restored to original set *****
 -------------------------------------------------------------------
 Center     Atomic                   Forces (Hartrees/Bohr)
 Number     Number              X              Y              Z
 -------------------------------------------------------------------
      1        6           0.000145884   -0.001028737   -0.017080394
      2        6          -0.000980923    0.000327276   -0.008878137
      3        1          -0.000679464    0.001130811    0.010807372
      4        1           0.002028412   -0.005458150    0.001144423
      5        1          -0.001604026    0.004706228    0.000338453
      6        6           0.001238035   -0.000587643    0.011045081
      7        1          -0.006911837    0.003616302    0.001044838
      8        1           0.006688633   -0.002741483    0.001096254
      9        1           0.000015855   -0.000016225    0.000308747
     10        1           0.001447904   -0.000995859   -0.000099320
     11        1          -0.001388473    0.001047481    0.000272684
 -------------------------------------------------------------------
 Cartesian Forces:  Max     0.017080394 RMS     0.004914002

 GradGradGradGradGradGradGradGradGradGradGradGradGradGradGradGradGradGrad
 Berny optimization.
 FormGI is forming the generalized inverse of G from B-inverse, IUseBI=4.
 Internal  Forces:  Max     0.009441106 RMS     0.003099278
 Search for a local minimum.
 Step number   1 out of a maximum of   56 on scan point     2 out of    24
 All quantities printed in internal units (Hartrees-Bohrs-Radians)
 Mixed Optimization -- RFO/linear search
 Second derivative matrix not updated -- first step.
 ITU=  0
     Eigenvalues ---    0.00330   0.01552   0.03968   0.04601   0.05403
     Eigenvalues ---    0.05490   0.05589   0.08305   0.11652   0.14840
     Eigenvalues ---    0.16000   0.16000   0.16000   0.16000   0.16026
     Eigenvalues ---    0.20799   0.28121   0.29152   0.32961   0.32966
     Eigenvalues ---    0.33138   0.33138   0.33138   0.33227   0.33268
     Eigenvalues ---    0.372521000.000001000.000001000.000001000.00000
     Eigenvalues --- 1000.000001000.000001000.000001000.000001000.00000
     Eigenvalues --- 1000.000001000.000001000.000001000.000001000.00000
     Eigenvalues --- 1000.000001000.000001000.000001000.000001000.00000
     Eigenvalues --- 1000.00000
 RFO step:  Lambda=-4.09316402D-03 EMin= 3.30146499D-03
 Linear search not attempted -- first point.
 Iteration  1 RMS(Cart)=  0.04943740 RMS(Int)=  0.00227219
 Iteration  2 RMS(Cart)=  0.00211088 RMS(Int)=  0.00054272
 Iteration  3 RMS(Cart)=  0.00000246 RMS(Int)=  0.00054272
 Iteration  4 RMS(Cart)=  0.00000000 RMS(Int)=  0.00054272
 Iteration  1 RMS(Cart)=  0.00001409 RMS(Int)=  0.00001575
 Iteration  2 RMS(Cart)=  0.00000878 RMS(Int)=  0.00001750
 Iteration  3 RMS(Cart)=  0.00000547 RMS(Int)=  0.00002004
 Iteration  4 RMS(Cart)=  0.00000341 RMS(Int)=  0.00002200
 Iteration  5 RMS(Cart)=  0.00000212 RMS(Int)=  0.00002332
 Iteration  6 RMS(Cart)=  0.00000132 RMS(Int)=  0.00002418
 Iteration  7 RMS(Cart)=  0.00000082 RMS(Int)=  0.00002473
 Variable       Old X    -DE/DX   Delta X   Delta X   Delta X     New X
                                 (Linear)    (Quad)   (Total)
    R1        2.89841   0.00049   0.00000   0.00123   0.00123   2.89964
    R2        2.09024  -0.00082   0.00000  -0.00277  -0.00277   2.08748
    R3        2.08973   0.00239   0.00000   0.00679   0.00679   2.09652
    R4        2.08970  -0.00232   0.00000  -0.00727  -0.00727   2.08243
    R5        2.89882   0.00074   0.00000   0.00205   0.00205   2.90087
    R6        2.09226   0.00097   0.00000   0.00266   0.00266   2.09492
    R7        2.09224  -0.00110   0.00000  -0.00353  -0.00353   2.08871
    R8        2.08708  -0.00001   0.00000  -0.00035  -0.00035   2.08673
    R9        2.08949   0.00064   0.00000   0.00158   0.00158   2.09106
   R10        2.08951  -0.00081   0.00000  -0.00277  -0.00277   2.08674
    A1        1.95317   0.00015   0.00000  -0.00215  -0.00347   1.94971
    A2        1.88658   0.00318   0.00000   0.03527   0.03505   1.92163
    A3        1.98892  -0.00298   0.00000  -0.03138  -0.03208   1.95685
    A4        1.77821   0.00449   0.00000   0.05665   0.05580   1.83401
    A5        1.96757  -0.00327   0.00000  -0.04412  -0.04568   1.92189
    A6        1.87328  -0.00036   0.00000   0.00063   0.00103   1.87431
    A7        1.96457   0.00077   0.00000   0.00421   0.00356   1.96812
    A8        1.91244  -0.00456   0.00000  -0.01972  -0.02066   1.89179
    A9        1.90619   0.00457   0.00000   0.01765   0.01684   1.92303
   A10        1.81445   0.00757   0.00000   0.07109   0.07165   1.88610
   A11        2.00592  -0.00806   0.00000  -0.06746  -0.06701   1.93891
   A12        1.85332  -0.00043   0.00000  -0.00347  -0.00220   1.85112
   A13        1.94984  -0.00001   0.00000  -0.00017  -0.00025   1.94960
   A14        1.93827   0.00283   0.00000   0.01985   0.01986   1.95813
   A15        1.93827  -0.00274   0.00000  -0.01859  -0.01857   1.91969
   A16        1.87969  -0.00104   0.00000  -0.00240  -0.00248   1.87722
   A17        1.87971   0.00100   0.00000   0.00183   0.00176   1.88147
   A18        1.87489  -0.00005   0.00000  -0.00059  -0.00048   1.87441
    D1       -2.87980  -0.00944   0.00000   0.00000   0.00001  -2.87979
    D2       -0.87003  -0.00251   0.00000   0.07773   0.07765  -0.79239
    D3        1.15334  -0.00301   0.00000   0.07248   0.07271   1.22605
    D4       -0.93548  -0.00223   0.00000   0.08617   0.08646  -0.84902
    D5        1.07429   0.00470   0.00000   0.16389   0.16410   1.23839
    D6        3.09767   0.00420   0.00000   0.15865   0.15916  -3.02636
    D7        1.14524  -0.00234   0.00000   0.09181   0.09127   1.23650
    D8       -3.12818   0.00459   0.00000   0.16954   0.16890  -2.95928
    D9       -1.10480   0.00410   0.00000   0.16429   0.16396  -0.94084
   D10        3.09863  -0.00056   0.00000   0.01937   0.01943   3.11806
   D11       -1.08556   0.00005   0.00000   0.02981   0.02992  -1.05564
   D12        0.99962   0.00005   0.00000   0.02990   0.02992   1.02954
   D13        1.03045  -0.00009   0.00000  -0.00238  -0.00308   1.02737
   D14        3.12944   0.00052   0.00000   0.00806   0.00741   3.13686
   D15       -1.06857   0.00052   0.00000   0.00815   0.00741  -1.06115
   D16       -0.98744  -0.00036   0.00000  -0.00967  -0.00904  -0.99648
   D17        1.11156   0.00025   0.00000   0.00077   0.00145   1.11300
   D18       -3.08645   0.00025   0.00000   0.00086   0.00145  -3.08501
         Item               Value     Threshold  Converged?
 Maximum Force            0.004612     0.000450     NO 
 RMS     Force            0.002139     0.000300     NO 
 Maximum Displacement     0.160811     0.001800     NO 
 RMS     Displacement     0.049453     0.001200     NO 
 Predicted change in Energy=-2.358609D-03
 GradGradGradGradGradGradGradGradGradGradGradGradGradGradGradGradGradGrad

                          Input orientation:                          
 ---------------------------------------------------------------------
 Center     Atomic      Atomic             Coordinates (Angstroms)
 Number     Number       Type             X           Y           Z
 ---------------------------------------------------------------------
      1          6           0       -1.278022   -0.258745    0.026520
      2          6           0        0.000576    0.589236    0.050431
      3          1           0       -2.171275    0.354764   -0.187837
      4          1           0       -1.230180   -0.997527   -0.799766
      5          1           0       -1.420466   -0.821199    0.963378
      6          6           0        1.277652   -0.259465   -0.021933
      7          1           0       -0.012365    1.266398   -0.827203
      8          1           0        0.007688    1.243401    0.941332
      9          1           0        2.185720    0.368820   -0.027656
     10          1           0        1.362305   -0.960701    0.829852
     11          1           0        1.278396   -0.862261   -0.947143
 ---------------------------------------------------------------------
                    Distance matrix (angstroms):
                    1          2          3          4          5
     1  C    0.000000
     2  C    1.534425   0.000000
     3  H    1.104646   2.197427   0.000000
     4  H    1.109430   2.180691   1.757501   0.000000
     5  H    1.101975   2.200491   1.808839   1.782127   0.000000
     6  C    2.556134   1.535074   3.507121   2.727449   2.926811
     7  H    2.157960   1.108583   2.429147   2.570833   3.089820
     8  H    2.178618   1.105300   2.610091   3.096045   2.510514
     9  H    3.520552   2.197620   4.359962   3.759180   3.924650
    10  H    2.847703   2.205472   3.905423   3.062350   2.789463
    11  H    2.801344   2.175965   3.736031   2.516540   3.306907
                    6          7          8          9         10
     6  C    0.000000
     7  H    2.154266   0.000000
     8  H    2.190729   1.768799   0.000000
     9  H    1.104248   2.505295   2.539223   0.000000
    10  H    1.106542   3.097663   2.589494   1.783524   0.000000
    11  H    1.104254   2.492316   3.100782   1.784448   1.781696
                   11
    11  H    0.000000
 Stoichiometry    C3H8
 Framework group  C1[X(C3H8)]
 Deg. of freedom    27
 Full point group                 C1      NOp   1
 Largest Abelian subgroup         C1      NOp   1
 Largest concise Abelian subgroup C1      NOp   1
                         Standard orientation:                         
 ---------------------------------------------------------------------
 Center     Atomic      Atomic             Coordinates (Angstroms)
 Number     Number       Type             X           Y           Z
 ---------------------------------------------------------------------
      1          6           0        1.278214   -0.258997   -0.009638
      2          6           0       -0.000063    0.589805   -0.010471
      3          1           0        2.168010    0.342590    0.248433
      4          1           0        1.218110   -1.038017    0.777985
      5          1           0        1.434853   -0.774135   -0.971119
      6          6           0       -1.277900   -0.260767    0.000297
      7          1           0       -0.000469    1.222376    0.899919
      8          1           0        0.006083    1.287562   -0.867666
      9          1           0       -2.186087    0.366937    0.023678
     10          1           0       -1.349581   -0.918633   -0.886556
     11          1           0       -1.292428   -0.908926    0.894197
 ---------------------------------------------------------------------
 Rotational constants (GHZ):          29.0561198           8.3336298           7.3842207
 Standard basis: 6-31+G(d) (6D, 7F)
 There are    73 symmetry adapted cartesian basis functions of A   symmetry.
 There are    73 symmetry adapted basis functions of A   symmetry.
    73 basis functions,   128 primitive gaussians,    73 cartesian basis functions
    13 alpha electrons       13 beta electrons
       nuclear repulsion energy        81.9400668004 Hartrees.
 NAtoms=   11 NActive=   11 NUniq=   11 SFac= 1.00D+00 NAtFMM=   60 NAOKFM=F Big=F
 Integral buffers will be    131072 words long.
 Raffenetti 2 integral format.
 Two-electron integral symmetry is turned on.
 Nuclear repulsion after empirical dispersion term =       81.9340539058 Hartrees.
 One-electron integrals computed using PRISM.
 NBasis=    73 RedAO= T EigKep=  2.22D-04  NBF=    73
 NBsUse=    73 1.00D-06 EigRej= -1.00D+00 NBFU=    73
 Initial guess from the checkpoint file:  "CC_H8C3_d91b46644317dee9c2b868166c66a18c~1.chk"
 B after Tr=     0.000000    0.000000    0.000000
         Rot=    0.999995   -0.002588   -0.001790    0.000114 Ang=  -0.36 deg.
 ExpMin= 4.38D-02 ExpMax= 3.05D+03 ExpMxC= 4.57D+02 IAcc=3 IRadAn=         5 AccDes= 0.00D+00
 Harris functional with IExCor= 1009 and IRadAn=       5 diagonalized for initial guess.
 HarFok:  IExCor= 1009 AccDes= 0.00D+00 IRadAn=         5 IDoV= 1 UseB2=F ITyADJ=14
 ICtDFT=  3500011 ScaDFX=  1.000000  1.000000  1.000000  1.000000
 FoFCou: FMM=F IPFlag=           0 FMFlag=      100000 FMFlg1=           0
         NFxFlg=           0 DoJE=T BraDBF=F KetDBF=T FulRan=T
         wScrn=  0.000000 ICntrl=       500 IOpCl=  0 I1Cent=   200000004 NGrid=           0
         NMat0=    1 NMatS0=      1 NMatT0=    0 NMatD0=    1 NMtDS0=    0 NMtDT0=    0
 Petite list used in FoFCou.
 Keep J ints in memory in canonical form, NReq=25192566.
 Requested convergence on RMS density matrix=1.00D-08 within 128 cycles.
 Requested convergence on MAX density matrix=1.00D-06.
 Requested convergence on             energy=1.00D-06.
 No special actions if energy rises.
 SCF Done:  E(RPBE-PBE) =  -118.965023963     A.U. after    9 cycles
            NFock=  9  Conv=0.42D-08     -V/T= 2.0113
 Calling FoFJK, ICntrl=      2527 FMM=F ISym2X=0 I1Cent= 0 IOpClX= 0 NMat=1 NMatS=1 NMatT=0.
 ***** Axes restored to original set *****
 -------------------------------------------------------------------
 Center     Atomic                   Forces (Hartrees/Bohr)
 Number     Number              X              Y              Z
 -------------------------------------------------------------------
      1        6           0.000584802   -0.001436544   -0.007963961
      2        6          -0.000254000   -0.000057821   -0.004737679
      3        1          -0.000615434    0.000629744    0.005335376
      4        1           0.001151232   -0.000128544    0.001920175
      5        1          -0.001481172    0.000332685    0.001354064
      6        6          -0.000150365    0.000474847    0.002379955
      7        1           0.000176252    0.000467628    0.001135962
      8        1           0.000747777   -0.000418957    0.000983409
      9        1           0.000079712    0.000099198    0.000048497
     10        1          -0.000957395    0.000651158   -0.000062690
     11        1           0.000718590   -0.000613393   -0.000393109
 -------------------------------------------------------------------
 Cartesian Forces:  Max     0.007963961 RMS     0.002047295

 GradGradGradGradGradGradGradGradGradGradGradGradGradGradGradGradGradGrad
 Berny optimization.
 Using GEDIIS/GDIIS optimizer.
 FormGI is forming the generalized inverse of G from B-inverse, IUseBI=4.
 Internal  Forces:  Max     0.003508766 RMS     0.001064652
 Search for a local minimum.
 Step number   2 out of a maximum of   56 on scan point     2 out of    24
 All quantities printed in internal units (Hartrees-Bohrs-Radians)
 Mixed Optimization -- En-DIIS/RFO-DIIS
 Update second derivatives using D2CorX and points    1    2
 DE= -2.39D-03 DEPred=-2.36D-03 R= 1.01D+00
 TightC=F SS=  1.41D+00  RLast= 3.95D-01 DXNew= 5.0454D-01 1.1844D+00
 Trust test= 1.01D+00 RLast= 3.95D-01 DXMaxT set to 5.05D-01
 ITU=  1  0
 Use linear search instead of GDIIS.
     Eigenvalues ---    0.00330   0.01387   0.04116   0.04486   0.05362
     Eigenvalues ---    0.05496   0.05574   0.08389   0.11930   0.14842
     Eigenvalues ---    0.15991   0.16000   0.16000   0.16024   0.17110
     Eigenvalues ---    0.20820   0.28125   0.29188   0.32966   0.32983
     Eigenvalues ---    0.33136   0.33138   0.33225   0.33263   0.33810
     Eigenvalues ---    0.372491000.000001000.000001000.000001000.00000
     Eigenvalues --- 1000.000001000.000001000.000001000.000001000.00000
     Eigenvalues --- 1000.000001000.000001000.000001000.000001000.00000
     Eigenvalues --- 1000.000001000.000001000.000001000.000001000.00000
     Eigenvalues --- 1000.00000
 RFO step:  Lambda=-2.98727627D-04 EMin= 3.30184435D-03
 Quartic linear search produced a step of  0.19914.
 Iteration  1 RMS(Cart)=  0.02255998 RMS(Int)=  0.00043005
 Iteration  2 RMS(Cart)=  0.00037172 RMS(Int)=  0.00016280
 Iteration  3 RMS(Cart)=  0.00000003 RMS(Int)=  0.00016280
 Iteration  1 RMS(Cart)=  0.00000217 RMS(Int)=  0.00000243
 Iteration  2 RMS(Cart)=  0.00000135 RMS(Int)=  0.00000270
 Iteration  3 RMS(Cart)=  0.00000084 RMS(Int)=  0.00000309
 Variable       Old X    -DE/DX   Delta X   Delta X   Delta X     New X
                                 (Linear)    (Quad)   (Total)
    R1        2.89964   0.00062   0.00025   0.00223   0.00248   2.90212
    R2        2.08748  -0.00019  -0.00055  -0.00036  -0.00091   2.08657
    R3        2.09652  -0.00130   0.00135  -0.00579  -0.00444   2.09208
    R4        2.08243   0.00117  -0.00145   0.00523   0.00378   2.08621
    R5        2.90087  -0.00069   0.00041  -0.00328  -0.00287   2.89800
    R6        2.09492  -0.00062   0.00053  -0.00270  -0.00217   2.09275
    R7        2.08871   0.00055  -0.00070   0.00246   0.00176   2.09047
    R8        2.08673   0.00012  -0.00007   0.00039   0.00032   2.08705
    R9        2.09106  -0.00053   0.00031  -0.00226  -0.00195   2.08911
   R10        2.08674   0.00066  -0.00055   0.00272   0.00217   2.08890
    A1        1.94971   0.00016  -0.00069   0.00112   0.00002   1.94972
    A2        1.92163   0.00003   0.00698  -0.00090   0.00597   1.92760
    A3        1.95685   0.00001  -0.00639   0.00116  -0.00543   1.95142
    A4        1.83401   0.00223   0.01111   0.01624   0.02705   1.86106
    A5        1.92189  -0.00221  -0.00910  -0.01623  -0.02578   1.89610
    A6        1.87431  -0.00008   0.00020  -0.00051  -0.00021   1.87410
    A7        1.96812   0.00032   0.00071   0.00138   0.00180   1.96992
    A8        1.89179   0.00043  -0.00411   0.01757   0.01315   1.90493
    A9        1.92303  -0.00000   0.00335  -0.00955  -0.00646   1.91657
   A10        1.88610   0.00093   0.01427  -0.00178   0.01250   1.89860
   A11        1.93891  -0.00161  -0.01334  -0.00641  -0.01969   1.91922
   A12        1.85112  -0.00002  -0.00044  -0.00041  -0.00049   1.85062
   A13        1.94960   0.00003  -0.00005   0.00015   0.00004   1.94964
   A14        1.95813  -0.00175   0.00396  -0.01794  -0.01397   1.94416
   A15        1.91969   0.00144  -0.00370   0.01575   0.01206   1.93176
   A16        1.87722   0.00062  -0.00049   0.00134   0.00079   1.87801
   A17        1.88147  -0.00045   0.00035   0.00011   0.00041   1.88188
   A18        1.87441   0.00012  -0.00010   0.00091   0.00088   1.87530
    D1       -2.87979  -0.00351   0.00000   0.00000   0.00000  -2.87979
    D2       -0.79239  -0.00186   0.01546   0.01043   0.02592  -0.76647
    D3        1.22605  -0.00163   0.01448   0.01470   0.02922   1.25527
    D4       -0.84902  -0.00064   0.01722   0.02017   0.03747  -0.81155
    D5        1.23839   0.00101   0.03268   0.03060   0.06339   1.30178
    D6       -3.02636   0.00123   0.03169   0.03487   0.06669  -2.95967
    D7        1.23650  -0.00072   0.01817   0.01967   0.03768   1.27418
    D8       -2.95928   0.00093   0.03364   0.03010   0.06360  -2.89568
    D9       -0.94084   0.00115   0.03265   0.03437   0.06690  -0.87394
   D10        3.11806   0.00110   0.00387   0.02846   0.03233  -3.13279
   D11       -1.05564   0.00069   0.00596   0.01761   0.02360  -1.03204
   D12        1.02954   0.00068   0.00596   0.01775   0.02367   1.05321
   D13        1.02737  -0.00026  -0.00061   0.00689   0.00610   1.03347
   D14        3.13686  -0.00067   0.00148  -0.00396  -0.00263   3.13423
   D15       -1.06115  -0.00068   0.00148  -0.00382  -0.00256  -1.06371
   D16       -0.99648   0.00010  -0.00180   0.01196   0.01034  -0.98614
   D17        1.11300  -0.00031   0.00029   0.00111   0.00161   1.11461
   D18       -3.08501  -0.00032   0.00029   0.00125   0.00168  -3.08332
         Item               Value     Threshold  Converged?
 Maximum Force            0.001747     0.000450     NO 
 RMS     Force            0.000658     0.000300     NO 
 Maximum Displacement     0.061908     0.001800     NO 
 RMS     Displacement     0.022544     0.001200     NO 
 Predicted change in Energy=-2.184772D-04
 GradGradGradGradGradGradGradGradGradGradGradGradGradGradGradGradGradGrad

                          Input orientation:                          
 ---------------------------------------------------------------------
 Center     Atomic      Atomic             Coordinates (Angstroms)
 Number     Number       Type             X           Y           Z
 ---------------------------------------------------------------------
      1          6           0       -1.279067   -0.261014    0.020855
      2          6           0        0.000536    0.587971    0.038748
      3          1           0       -2.172469    0.351203   -0.194094
      4          1           0       -1.222445   -1.029072   -0.774451
      5          1           0       -1.434738   -0.788439    0.978117
      6          6           0        1.277860   -0.257693   -0.032586
      7          1           0       -0.014064    1.285082   -0.821624
      8          1           0        0.017327    1.221768    0.945259
      9          1           0        2.185682    0.370848   -0.009468
     10          1           0        1.340159   -0.966218    0.813740
     11          1           0        1.301247   -0.851715   -0.964520
 ---------------------------------------------------------------------
                    Distance matrix (angstroms):
                    1          2          3          4          5
     1  C    0.000000
     2  C    1.535735   0.000000
     3  H    1.104165   2.198233   0.000000
     4  H    1.107081   2.184445   1.773279   0.000000
     5  H    1.103975   2.199302   1.793630   1.781703   0.000000
     6  C    2.557488   1.533556   3.507365   2.719727   2.943026
     7  H    2.168045   1.107437   2.434058   2.611077   3.091419
     8  H    2.175731   1.106229   2.617482   3.092041   2.480021
     9  H    3.522025   2.196436   4.362105   3.763018   3.927686
    10  H    2.826009   2.193332   3.884570   3.015500   2.785441
    11  H    2.824520   2.184283   3.755965   2.537046   3.356108
                    6          7          8          9         10
     6  C    0.000000
     7  H    2.161436   0.000000
     8  H    2.175760   1.768295   0.000000
     9  H    1.104418   2.516804   2.517406   0.000000
    10  H    1.105511   3.094622   2.560169   1.783347   0.000000
    11  H    1.105400   2.513238   3.097586   1.785780   1.782367
                   11
    11  H    0.000000
 Stoichiometry    C3H8
 Framework group  C1[X(C3H8)]
 Deg. of freedom    27
 Full point group                 C1      NOp   1
 Largest Abelian subgroup         C1      NOp   1
 Largest concise Abelian subgroup C1      NOp   1
                         Standard orientation:                         
 ---------------------------------------------------------------------
 Center     Atomic      Atomic             Coordinates (Angstroms)
 Number     Number       Type             X           Y           Z
 ---------------------------------------------------------------------
      1          6           0        1.279605   -0.258527   -0.004080
      2          6           0       -0.001378    0.588565   -0.004160
      3          1           0        2.167309    0.343382    0.258342
      4          1           0        1.209532   -1.065462    0.750622
      5          1           0        1.454801   -0.737223   -0.983324
      6          6           0       -1.277878   -0.261330    0.000237
      7          1           0       -0.004871    1.241808    0.890087
      8          1           0       -0.002264    1.266868   -0.878029
      9          1           0       -2.186540    0.366357   -0.008918
     10          1           0       -1.322318   -0.926739   -0.881472
     11          1           0       -1.317741   -0.901232    0.900707
 ---------------------------------------------------------------------
 Rotational constants (GHZ):          29.1074410           8.3255008           7.3785677
 Standard basis: 6-31+G(d) (6D, 7F)
 There are    73 symmetry adapted cartesian basis functions of A   symmetry.
 There are    73 symmetry adapted basis functions of A   symmetry.
    73 basis functions,   128 primitive gaussians,    73 cartesian basis functions
    13 alpha electrons       13 beta electrons
       nuclear repulsion energy        81.9355102781 Hartrees.
 NAtoms=   11 NActive=   11 NUniq=   11 SFac= 1.00D+00 NAtFMM=   60 NAOKFM=F Big=F
 Integral buffers will be    131072 words long.
 Raffenetti 2 integral format.
 Two-electron integral symmetry is turned on.
 Nuclear repulsion after empirical dispersion term =       81.9294987869 Hartrees.
 One-electron integrals computed using PRISM.
 NBasis=    73 RedAO= T EigKep=  2.21D-04  NBF=    73
 NBsUse=    73 1.00D-06 EigRej= -1.00D+00 NBFU=    73
 Initial guess from the checkpoint file:  "CC_H8C3_d91b46644317dee9c2b868166c66a18c~1.chk"
 B after Tr=     0.000000    0.000000   -0.000000
         Rot=    0.999998   -0.000507    0.001705   -0.000691 Ang=  -0.22 deg.
 ExpMin= 4.38D-02 ExpMax= 3.05D+03 ExpMxC= 4.57D+02 IAcc=3 IRadAn=         5 AccDes= 0.00D+00
 Harris functional with IExCor= 1009 and IRadAn=       5 diagonalized for initial guess.
 HarFok:  IExCor= 1009 AccDes= 0.00D+00 IRadAn=         5 IDoV= 1 UseB2=F ITyADJ=14
 ICtDFT=  3500011 ScaDFX=  1.000000  1.000000  1.000000  1.000000
 FoFCou: FMM=F IPFlag=           0 FMFlag=      100000 FMFlg1=           0
         NFxFlg=           0 DoJE=T BraDBF=F KetDBF=T FulRan=T
         wScrn=  0.000000 ICntrl=       500 IOpCl=  0 I1Cent=   200000004 NGrid=           0
         NMat0=    1 NMatS0=      1 NMatT0=    0 NMatD0=    1 NMtDS0=    0 NMtDT0=    0
 Petite list used in FoFCou.
 Keep J ints in memory in canonical form, NReq=25192566.
 Requested convergence on RMS density matrix=1.00D-08 within 128 cycles.
 Requested convergence on MAX density matrix=1.00D-06.
 Requested convergence on             energy=1.00D-06.
 No special actions if energy rises.
 SCF Done:  E(RPBE-PBE) =  -118.965257100     A.U. after    8 cycles
            NFock=  8  Conv=0.88D-08     -V/T= 2.0113
 Calling FoFJK, ICntrl=      2527 FMM=F ISym2X=0 I1Cent= 0 IOpClX= 0 NMat=1 NMatS=1 NMatT=0.
 ***** Axes restored to original set *****
 -------------------------------------------------------------------
 Center     Atomic                   Forces (Hartrees/Bohr)
 Number     Number              X              Y              Z
 -------------------------------------------------------------------
      1        6           0.000641516   -0.000644469   -0.003336710
      2        6          -0.000305883    0.000333361   -0.001924625
      3        1          -0.000423713    0.000369524    0.002609773
      4        1          -0.000001287    0.000193511    0.000412584
      5        1          -0.000084252   -0.000080489    0.000317147
      6        6           0.000097514   -0.000136209    0.001361663
      7        1           0.000061845   -0.000050213    0.000215731
      8        1          -0.000051627    0.000168109    0.000177945
      9        1          -0.000004045   -0.000004337   -0.000075255
     10        1          -0.000170550   -0.000100043    0.000148158
     11        1           0.000240483   -0.000048745    0.000093590
 -------------------------------------------------------------------
 Cartesian Forces:  Max     0.003336710 RMS     0.000878214

 GradGradGradGradGradGradGradGradGradGradGradGradGradGradGradGradGradGrad
 Berny optimization.
 Using GEDIIS/GDIIS optimizer.
 FormGI is forming the generalized inverse of G from B-inverse, IUseBI=4.
 Internal  Forces:  Max     0.001890713 RMS     0.000476395
 Search for a local minimum.
 Step number   3 out of a maximum of   56 on scan point     2 out of    24
 All quantities printed in internal units (Hartrees-Bohrs-Radians)
 Mixed Optimization -- En-DIIS/RFO-DIIS
 Swapping is turned off.
 Update second derivatives using D2CorX and points    1    2    3
 DE= -2.33D-04 DEPred=-2.18D-04 R= 1.07D+00
 TightC=F SS=  1.41D+00  RLast= 1.62D-01 DXNew= 8.4853D-01 4.8645D-01
 Trust test= 1.07D+00 RLast= 1.62D-01 DXMaxT set to 5.05D-01
 ITU=  1  1  0
     Eigenvalues ---    0.00330   0.01339   0.04135   0.04436   0.05430
     Eigenvalues ---    0.05483   0.05516   0.08410   0.11993   0.14842
     Eigenvalues ---    0.15981   0.16000   0.16018   0.16065   0.16858
     Eigenvalues ---    0.20892   0.28124   0.29270   0.32966   0.32977
     Eigenvalues ---    0.33137   0.33173   0.33227   0.33274   0.33558
     Eigenvalues ---    0.372471000.000001000.000001000.000001000.00000
     Eigenvalues --- 1000.000001000.000001000.000001000.000001000.00000
[...]
           D3        -153.48100-138.08703-122.05607-106.01507 -90.71044
           D4          87.46364 103.03199 119.69816 136.40314 152.08464
           D5        -151.90443-135.94861-118.25146-100.50898 -84.49633
           D6         -36.01742 -20.05497  -2.35789  15.38812  31.37422
           D7        -152.07480-136.41980-119.69899-103.03444 -87.45849
           D8         -31.44287 -15.40040   2.35139  20.05345  35.96055
           D9          84.44414 100.49324 118.24496 135.95055 151.83110
           D10       -178.76535-179.14594-179.99953 179.14080 178.75097
           D11        -58.43309 -58.82711 -59.72970 -60.65519 -61.06470
           D12         61.04094  60.64205  59.73063  58.81597  58.40821
           D13         59.98975  59.07835  57.37744  55.81822  55.40623
           D14       -179.67800 179.39719 177.64728 176.02223 175.59057
           D15        -60.20396 -61.13366 -62.89239 -64.50661 -64.93652
           D16        -55.33905 -55.82549 -57.37768 -59.09131 -59.89714
           D17         64.99320  64.49335  62.89216  61.11270  60.28719
           D18       -175.53276-176.03750-177.64751-179.41614 179.76010
                          16        17        18        19        20
     Eigenvalues --    -0.96527  -0.96591  -0.96523  -0.96356  -0.96184
           R1           1.53560   1.53381   1.53584   1.54088   1.54670
           R2           1.10567   1.10555   1.10515   1.10454   1.10395
           R3           1.10365   1.10438   1.10488   1.10485   1.10427
           R4           1.10586   1.10557   1.10501   1.10458   1.10459
           R5           1.53392   1.53379   1.53411   1.53451   1.53482
           R6           1.10652   1.10700   1.10714   1.10684   1.10618
           R7           1.10723   1.10700   1.10646   1.10590   1.10557
           R8           1.10436   1.10437   1.10441   1.10454   1.10461
           R9           1.10526   1.10558   1.10580   1.10588   1.10575
           R10          1.10584   1.10556   1.10527   1.10516   1.10522
           A1         110.98929 111.05675 111.33272 111.67196 111.97855
           A2         112.17042 111.70761 111.33593 111.31435 111.65354
           A3         110.85860 111.05530 111.37163 111.58942 111.54398
           A4         108.48187 107.68942 106.75118 106.14718 106.29546
           A5         106.47363 107.43635 108.23401 108.46406 107.94303
           A6         107.63525 107.70348 107.60730 107.39844 107.13541
           A7         112.75341 112.72722 112.84971 112.96807 113.07673
           A8         109.70344 109.44856 109.30217 109.39906 109.67596
           A9         109.37471 109.46505 109.66508 109.94528 110.06848
           A10        109.99334 109.44209 108.77256 108.29985 108.36654
           A11        108.78852 109.46494 109.99946 110.09058 109.65688
           A12        105.99673 106.07473 106.01588 105.87619 105.71939
           A13        111.71077 111.71631 111.72600 111.72995 111.72710
           A14        110.84883 111.05933 111.24706 111.34124 111.23472
           A15        111.24056 111.04719 110.83439 110.72499 110.79484
           A16        107.77230 107.70100 107.65381 107.63572 107.66289
           A17        107.64562 107.70584 107.76570 107.78358 107.77897
           A18        107.43190 107.41881 107.42233 107.43446 107.45400
           D1          44.99996  59.99998  74.99994  89.99989 104.99983
           D2         167.95767-177.95286-163.82868-149.28342-133.92994
           D3         -76.17877 -62.08820 -48.00487 -33.41426 -18.02004
           D4         166.53194-179.75349-166.00521-151.55746-135.93631
           D5         -70.51035 -57.70633 -44.83383 -30.84077 -14.86609
           D6          45.35321  58.15833  70.98997  85.02839 101.04381
           D7         -73.11309 -59.49008 -45.90047 -31.58507 -16.09828
           D8          49.84462  62.55708  75.27091  89.13163 104.97194
           D9         165.70818 178.42174-168.90529-154.99922-139.11815
           D10        179.10431-179.99505-179.22961-178.97824-179.25747
           D11        -60.68393 -59.72613 -58.88512 -58.58911 -58.90915
           D12         58.78514  59.73820  60.56662  60.86725  60.54817
           D13         56.30851  57.95414  59.29869  59.68123  58.93390
           D14        176.52027 178.22306 179.64319-179.92965 179.28222
           D15        -64.01066 -62.31261 -60.90507 -60.47329 -61.26046
           D16        -59.38404 -57.90680 -56.41113 -55.64446 -56.00979
           D17         60.82773  62.36211  63.93336  64.74467  64.33853
           D18       -179.70320-178.17356-176.61490-175.79898-176.20415
                          21        22        23        24
     Eigenvalues --    -0.96112  -0.96189  -0.96363  -0.96526
           R1           1.54926   1.54644   1.54061   1.53545
           R2           1.10358   1.10361   1.10391   1.10421
           R3           1.10355   1.10332   1.10376   1.10468
           R4           1.10515   1.10599   1.10647   1.10632
           R5           1.53480   1.53460   1.53431   1.53387
           R6           1.10570   1.10571   1.10611   1.10668
           R7           1.10573   1.10627   1.10682   1.10716
           R8           1.10466   1.10463   1.10451   1.10441
           R9           1.10547   1.10523   1.10514   1.10529
           R10          1.10550   1.10579   1.10592   1.10582
           A1         112.13315 112.13326 111.99357 111.77641
           A2         112.12675 112.36980 112.20732 111.67702
           A3         111.15874 110.65094 110.37282 110.56093
           A4         107.17866 108.21989 108.73911 108.53956
           A5         106.95652 106.15272 106.07897 106.75204
           A6         106.97632 106.98829 107.15137 107.30756
           A7         113.12043 113.08489 112.94531 112.79363
           A8         109.96640 110.10843 110.03689 109.75734
           A9         109.97450 109.64313 109.32285 109.26619
           A10        108.95243 109.67589 110.07361 109.96375
           A11        108.92335 108.38996 108.37286 108.83158
           A12        105.62195 105.65631 105.82430 105.99394
           A13        111.72207 111.71824 111.71900 111.72489
           A14        111.00552 110.79136 110.73101 110.82608
           A15        111.01658 111.24876 111.33106 111.23975
           A16        107.72361 107.78319 107.80773 107.77115
           A17        107.72134 107.65911 107.62821 107.65893
           A18        107.46430 107.45182 107.43401 107.42953
           D1         119.99995 134.99994 150.00004 165.00001
           D2        -117.93730-101.91983 -86.55568 -72.01281
           D3          -2.03118  13.91767  29.25905  43.81608
           D4        -119.36452-102.83239 -87.37617 -73.18071
           D5           2.69823  20.24784  36.06811  49.80647
           D6         118.60435 136.08533 151.88285 165.63537
           D7           0.32816  16.68965  32.05527  46.22672
           D8         122.39092 139.76988 155.49955 169.21390
           D9        -121.70297-104.39262 -88.68571 -74.95720
           D10        179.94479 179.19501 178.86138 179.14824
           D11        -59.79052 -60.61360 -60.95671 -60.64750
           D12         59.67541  58.84789  58.49639  58.80301
           D13         57.31631  55.87561  55.43740  56.27618
           D14        177.58100 176.06700 175.61931 176.48044
           D15        -62.95307 -64.47152 -64.92758 -64.06905
           D16        -57.43748 -59.01611 -59.85815 -59.42110
           D17         62.82721  61.17529  60.32376  60.78317
           D18       -177.70686-179.36323 179.77686-179.76633
 GradGradGradGradGradGradGradGradGradGradGradGradGradGradGradGradGradGrad

                          Input orientation:                          
 ---------------------------------------------------------------------
 Center     Atomic      Atomic             Coordinates (Angstroms)
 Number     Number       Type             X           Y           Z
 ---------------------------------------------------------------------
      1          6           0       -1.234071   -0.393800    0.181538
      2          6           0        0.152953    0.131125    0.579327
      3          1           0       -1.821895   -0.706396    1.062465
      4          1           0       -1.812795    0.364256   -0.375908
      5          1           0       -1.140791   -1.282189   -0.471163
      6          6           0        1.116232    0.225742   -0.610582
      7          1           0        0.053398    1.120793    1.064500
      8          1           0        0.592459   -0.539907    1.342448
      9          1           0        2.102758    0.619065   -0.307637
     10          1           0        1.275113   -0.768048   -1.067544
     11          1           0        0.716670    0.892081   -1.397468
 ---------------------------------------------------------------------
                    Distance matrix (angstroms):
                    1          2          3          4          5
     1  C    0.000000
     2  C    1.535453   0.000000
     3  H    1.104212   2.198838   0.000000
     4  H    1.104679   2.197950   1.793124   0.000000
     5  H    1.106325   2.185122   1.774106   1.780855   0.000000
     6  C    2.556406   1.533865   3.507215   2.941676   2.717986
     7  H    2.175130   1.106683   2.618273   2.475843   3.091710
     8  H    2.169164   1.107161   2.436230   3.091198   2.616166
     9  H    3.521309   2.196937   4.363133   3.924429   3.763259
    10  H    2.827769   2.186307   3.759282   3.360900   2.540985
    11  H    2.819954   2.191928   3.879525   2.778556   3.005936
                    6          7          8          9         10
     6  C    0.000000
     7  H    2.176381   0.000000
     8  H    2.162148   1.767984   0.000000
     9  H    1.104406   2.516816   2.519326   0.000000
    10  H    1.105294   3.099341   2.515179   1.785087   0.000000
    11  H    1.105824   2.559986   3.094053   1.784239   1.782340
                   11
    11  H    0.000000
 Stoichiometry    C3H8
 Framework group  C1[X(C3H8)]
 Deg. of freedom    27
 Full point group                 C1      NOp   1
 Largest Abelian subgroup         C1      NOp   1
 Largest concise Abelian subgroup C1      NOp   1
                         Standard orientation:                         
 ---------------------------------------------------------------------
 Center     Atomic      Atomic             Coordinates (Angstroms)
 Number     Number       Type             X           Y           Z
 ---------------------------------------------------------------------
      1          6           0        1.278918   -0.258794    0.003194
      2          6           0       -0.001111    0.589229    0.003589
      3          1           0        2.167813    0.341333   -0.259483
      4          1           0        1.453691   -0.734251    0.984882
      5          1           0        1.208068   -1.068899   -0.746915
      6          6           0       -1.277485   -0.261416   -0.000289
      7          1           0       -0.000981    1.266375    0.878930
      8          1           0       -0.005557    1.244385   -0.888911
      9          1           0       -2.186592    0.365475    0.015304
     10          1           0       -1.322423   -0.898466   -0.902410
     11          1           0       -1.315957   -0.930069    0.879638
 ---------------------------------------------------------------------
 Rotational constants (GHZ):          29.0800517           8.3316128           7.3810595

 **********************************************************************

            Population analysis using the SCF Density.

 **********************************************************************

 Orbital symmetries:
       Occupied  (A) (A) (A) (A) (A) (A) (A) (A) (A) (A) (A) (A)
                 (A)
       Virtual   (A) (A) (A) (A) (A) (A) (A) (A) (A) (A) (A) (A)
                 (A) (A) (A) (A) (A) (A) (A) (A) (A) (A) (A) (A)
                 (A) (A) (A) (A) (A) (A) (A) (A) (A) (A) (A) (A)
                 (A) (A) (A) (A) (A) (A) (A) (A) (A) (A) (A) (A)
                 (A) (A) (A) (A) (A) (A) (A) (A) (A) (A) (A) (A)
 The electronic state is 1-A.
 Alpha  occ. eigenvalues --   -9.89874  -9.88956  -9.88949  -0.70463  -0.61103
 Alpha  occ. eigenvalues --   -0.52198  -0.40494  -0.38657  -0.35026  -0.33382
 Alpha  occ. eigenvalues --   -0.29473  -0.29332  -0.28285
 Alpha virt. eigenvalues --    0.00265   0.02048   0.02446   0.03308   0.05791
 Alpha virt. eigenvalues --    0.06738   0.07357   0.07467   0.08299   0.10304
 Alpha virt. eigenvalues --    0.11046   0.13767   0.16494   0.16948   0.17525
 Alpha virt. eigenvalues --    0.20503   0.22258   0.23376   0.24871   0.28208
 Alpha virt. eigenvalues --    0.30424   0.31677   0.57398   0.59871   0.61261
 Alpha virt. eigenvalues --    0.62626   0.64740   0.65521   0.68186   0.69416
 Alpha virt. eigenvalues --    0.78459   0.88286   0.89711   0.91746   0.93764
 Alpha virt. eigenvalues --    0.96106   1.00237   1.05341   1.06516   1.07175
 Alpha virt. eigenvalues --    1.33817   1.39800   1.42009   1.52975   1.68182
 Alpha virt. eigenvalues --    1.82603   1.85747   1.91544   1.97522   2.03148
 Alpha virt. eigenvalues --    2.16175   2.17072   2.26999   2.30897   2.33830
 Alpha virt. eigenvalues --    2.51968   2.61578   4.08233   4.21179   4.39425
          Condensed to atoms (all electrons):
               1          2          3          4          5          6
     1  C    5.612735   0.095627   0.392169   0.396037   0.401903  -0.101190
     2  C    0.095627   5.645543  -0.064671  -0.043208  -0.064028   0.111771
     3  H    0.392169  -0.064671   0.501689  -0.025841  -0.028976   0.017562
     4  H    0.396037  -0.043208  -0.025841   0.497593  -0.030910  -0.012132
     5  H    0.401903  -0.064028  -0.028976  -0.030910   0.509406  -0.004773
     6  C   -0.101190   0.111771   0.017562  -0.012132  -0.004773   5.600626
     7  H   -0.048623   0.402948  -0.001131  -0.006541   0.004507  -0.049914
     8  H   -0.056977   0.417235  -0.004625   0.004337  -0.002867  -0.055542
     9  H    0.018939  -0.066380  -0.000130  -0.000075   0.000092   0.391516
    10  H   -0.011807  -0.053421  -0.000000  -0.000248   0.004171   0.401040
    11  H   -0.007275  -0.052956   0.000002   0.002609  -0.000675   0.396751
               7          8          9         10         11
     1  C   -0.048623  -0.056977   0.018939  -0.011807  -0.007275
     2  C    0.402948   0.417235  -0.066380  -0.053421  -0.052956
     3  H   -0.001131  -0.004625  -0.000130  -0.000000   0.000002
     4  H   -0.006541   0.004337  -0.000075  -0.000248   0.002609
     5  H    0.004507  -0.002867   0.000092   0.004171  -0.000675
     6  C   -0.049914  -0.055542   0.391516   0.401040   0.396751
     7  H    0.522814  -0.035008  -0.002719   0.004463  -0.004614
     8  H   -0.035008   0.524306  -0.002919  -0.005202   0.004593
     9  H   -0.002719  -0.002919   0.502469  -0.026905  -0.027457
    10  H    0.004463  -0.005202  -0.026905   0.503893  -0.031346
    11  H   -0.004614   0.004593  -0.027457  -0.031346   0.504551
 Mulliken charges:
               1
     1  C   -0.691538
     2  C   -0.328461
     3  H    0.213952
     4  H    0.218378
     5  H    0.212149
     6  C   -0.695715
     7  H    0.213817
     8  H    0.212669
     9  H    0.213569
    10  H    0.215362
    11  H    0.215818
 Sum of Mulliken charges =  -0.00000
 Mulliken charges with hydrogens summed into heavy atoms:
               1
     1  C   -0.047059
     2  C    0.098025
     6  C   -0.050966
 Electronic spatial extent (au):  <R**2>=            230.0184
 Charge=             -0.0000 electrons
 Dipole moment (field-independent basis, Debye):
    X=              0.0022    Y=              0.0885    Z=             -0.0120  Tot=              0.0893
 Quadrupole moment (field-independent basis, Debye-Ang):
   XX=            -22.6330   YY=            -22.2754   ZZ=            -21.7346
   XY=             -0.0138   XZ=             -0.0305   YZ=             -0.0170
 Traceless Quadrupole moment (field-independent basis, Debye-Ang):
   XX=             -0.4187   YY=             -0.0610   ZZ=              0.4797
   XY=             -0.0138   XZ=             -0.0305   YZ=             -0.0170
 Octapole moment (field-independent basis, Debye-Ang**2):
  XXX=             -0.0421  YYY=              0.3955  ZZZ=              0.3158  XYY=             -0.0550
  XXY=              1.5368  XXZ=             -0.1922  XZZ=              0.1158  YZZ=             -0.3878
  YYZ=             -0.1762  XYZ=             -0.2239
 Hexadecapole moment (field-independent basis, Debye-Ang**3):
 XXXX=           -213.6205 YYYY=            -76.4820 ZZZZ=            -47.0517 XXXY=             -0.2630
 XXXZ=             -0.8665 YYYX=             -0.0436 YYYZ=              0.3849 ZZZX=              0.6594
 ZZZY=             -0.2067 XXYY=            -47.9845 XXZZ=            -44.0438 YYZZ=            -18.5189
 XXYZ=             -0.5957 YYXZ=             -0.2524 ZZXY=              0.1454
 N-N= 8.193216414993D+01 E-N=-4.381118987521D+02  KE= 1.176387300379D+02
 1\1\GINC-PG-NODE004\Scan\RPBEPBE\6-31+G(d)\C3H8\P277989\21-Oct-2020\0\
 \#Opt=Modredundant PBEPBE EmpiricalDispersion=GD3BJ 6-31+G(D)\\CC_H8C3
 _d91b46644317dee9c2b868166c66a18c~1\\0,1\C,-1.234071466,-0.3938003048,
 0.1815383891\C,0.152952551,0.1311245533,0.5793265465\H,-1.8218953456,-
 0.7063964997,1.0624646505\H,-1.8127949304,0.3642558793,-0.3759077187\H
 ,-1.1407914478,-1.2821889244,-0.4711630705\C,1.1162320762,0.2257418413
 ,-0.6105821584\H,0.0533981401,1.1207931725,1.064499948\H,0.5924589905,
 -0.5399072313,1.3424484631\H,2.1027576329,0.6190654832,-0.3076371385\H
 ,1.2751132422,-0.7680476944,-1.0675436087\H,0.7166695567,0.892080725,-
 1.3974683024\\Version=ES64L-G16RevB.01\State=1-A\HF=-118.9659119,-118.
 9652606,-118.9636264,-118.9618925,-118.9611238,-118.9618386,-118.96356
 2,-118.9652261,-118.9659119,-118.9652706,-118.9636242,-118.9618785,-11
 8.9611235,-118.9618784,-118.9636245,-118.9652708,-118.9659119,-118.965
 2261,-118.9635621,-118.9618387,-118.9611238,-118.9618925,-118.9636264,
 -118.9652605\RMSD=5.743e-10,5.311e-09,5.952e-09,8.982e-09,2.799e-09,6.
 239e-09,6.178e-09,1.946e-09,6.668e-09,6.451e-09,9.206e-09,3.173e-09,4.
 669e-09,3.931e-09,8.182e-09,6.666e-09,7.070e-09,2.174e-09,9.454e-09,6.
 633e-09,4.696e-09,6.223e-09,8.991e-09,4.233e-09\PG=C01 [X(C3H8)]\\@


 I LOVE MANKIND - IT'S PEOPLE I CAN'T STAND.
     -- LINUS OF PEANUTS
 Job cpu time:       0 days  1 hours  8 minutes 49.8 seconds.
 Elapsed time:       0 days  0 hours  3 minutes 24.2 seconds.
 File lengths (MBytes):  RWF=     10 Int=      0 D2E=      0 Chk=      3 Scr=      1
 Normal termination of Gaussian 16 at Wed Oct 21 15:21:19 2020.


###############################################################################
Peregrine Cluster
Job 14894232 for user 'p277989'
Finished at: Wed Oct 21 15:21:20 CEST 2020

Job details:
============

Job ID              : 14894232
Name                : CC_H8C3_d91b46644317dee9c2b868166c66a18c~1.inp
User                : p277989
Partition           : short
Nodes               : pg-node004
Number of Nodes     : 1
Cores               : 24
State               : COMPLETED
Submit              : 2020-10-21T15:17:47
Start               : 2020-10-21T15:17:48
End                 : 2020-10-21T15:21:19
Reserved walltime   : 00:30:00
Used walltime       : 00:03:31
Used CPU time       : 01:08:49 (efficiency: 81.54%)
% User (Computation): 98.28%
% System (I/O)      :  1.72%
Mem reserved        : 2000M/core
Max Mem used        : 395.50M (pg-node004)
Max Disk Write      : 0.00  (pg-node004)
Max Disk Read       : 81.92K (pg-node004)


Acknowledgements:
=================

Please see this page for information about acknowledging Peregrine in your publications:

https://wiki.hpc.rug.nl/peregrine/additional_information/scientific_output

################################################################################
