benzene                                                                 
Freq      RPBEPBE                                                     6-31+G(d)           
Number of atoms                            I               12
Info1-9                                    I   N=           9
          23          23        1002           0           0         100
           6          18         902
Full Title                                 C   N=           1
benzene     
Route                                      C   N=           6
#p opt freq pbepbe 6-31+g(d) pop=(nboread,cm5) maxdisk=1000G
B           
Charge                                     I                0
Multiplicity                               I                1
Number of electrons                        I               42
Number of alpha electrons                  I               21
Number of beta electrons                   I               21
Number of basis functions                  I              126
Number of independent functions            I              126
Number of point charges in /Mol/           I                0
Number of translation vectors              I                0
Atomic numbers                             I   N=          12
           6           6           6           6           6           6
           1           1           1           1           1           1
Nuclear charges                            R   N=          12
  6.00000000E+00  6.00000000E+00  6.00000000E+00  6.00000000E+00  6.00000000E+00
  6.00000000E+00  1.00000000E+00  1.00000000E+00  1.00000000E+00  1.00000000E+00
  1.00000000E+00  1.00000000E+00
Current cartesian coordinates              R   N=          36
  2.01875312E+00 -1.72338549E+00  5.26568166E-08 -4.83170220E-01 -2.60996339E+00
 -1.37594252E-05 -2.50188000E+00 -8.86593019E-01  1.15870621E-05 -2.01872190E+00
  1.72342209E+00 -1.83224482E-06  4.83123249E-01  2.60997205E+00 -1.09485367E-05
  2.50189595E+00  8.86547988E-01  1.09652507E-05  3.59342993E+00 -3.06780788E+00
  9.49294216E-06 -8.59994305E-01 -4.64591335E+00 -1.19353292E-05 -4.45352158E+00
 -1.57809348E+00  2.35283893E-05 -3.59349505E+00  3.06773166E+00 -1.68903117E-06
  8.60091067E-01  4.64589542E+00 -3.87370785E-06  4.45348873E+00  1.57818624E+00
  8.08816000E-06
Number of symbols in /Mol/                 I                0
Force Field                                I                0
Atom Types                                 C   N=          12
                                                            
                                                            
                        
Int Atom Types                             I   N=          12
           0           0           0           0           0           0
           0           0           0           0           0           0
MM charges                                 R   N=          12
  0.00000000E+00  0.00000000E+00  0.00000000E+00  0.00000000E+00  0.00000000E+00
  0.00000000E+00  0.00000000E+00  0.00000000E+00  0.00000000E+00  0.00000000E+00
  0.00000000E+00  0.00000000E+00
Integer atomic weights                     I   N=          12
          12          12          12          12          12          12
           1           1           1           1           1           1
Real atomic weights                        R   N=          12
  1.20000000E+01  1.20000000E+01  1.20000000E+01  1.20000000E+01  1.20000000E+01
  1.20000000E+01  1.00782504E+00  1.00782504E+00  1.00782504E+00  1.00782504E+00
  1.00782504E+00  1.00782504E+00
Atom fragment info                         I   N=          12
           0           0           0           0           0           0
           0           0           0           0           0           0
Atom residue num                           I   N=          12
           0           0           0           0           0           0
           0           0           0           0           0           0
Nuclear spins                              I   N=          12
           0           0           0           0           0           0
           1           1           1           1           1           1
Nuclear ZEff                               R   N=          12
 -3.60000000E+00 -3.60000000E+00 -3.60000000E+00 -3.60000000E+00 -3.60000000E+00
 -3.60000000E+00 -1.00000000E+00 -1.00000000E+00 -1.00000000E+00 -1.00000000E+00
 -1.00000000E+00 -1.00000000E+00
Nuclear ZNuc                               R   N=          12
  6.00000000E+00  6.00000000E+00  6.00000000E+00  6.00000000E+00  6.00000000E+00
  6.00000000E+00  1.00000000E+00  1.00000000E+00  1.00000000E+00  1.00000000E+00
  1.00000000E+00  1.00000000E+00
Nuclear QMom                               R   N=          12
  0.00000000E+00  0.00000000E+00  0.00000000E+00  0.00000000E+00  0.00000000E+00
  0.00000000E+00  0.00000000E+00  0.00000000E+00  0.00000000E+00  0.00000000E+00
  0.00000000E+00  0.00000000E+00
Nuclear GFac                               R   N=          12
  0.00000000E+00  0.00000000E+00  0.00000000E+00  0.00000000E+00  0.00000000E+00
  0.00000000E+00  2.79284600E+00  2.79284600E+00  2.79284600E+00  2.79284600E+00
  2.79284600E+00  2.79284600E+00
MicOpt                                     I   N=          12
          -1          -1          -1          -1          -1          -1
          -1          -1          -1          -1          -1          -1
Number of residues                         I                0
Number of secondary structures             I                0
Redundant internal dimensions              I   N=           4
          54          12          18          24
Redundant internal coordinate indices      I   N=         216
           1           2           0           0           1           6
           0           0           1           7           0           0
           2           3           0           0           2           8
           0           0           3           4           0           0
           3           9           0           0           4           5
           0           0           4          10           0           0
           5           6           0           0           5          11
           0           0           6          12           0           0
           2           1           6           0           2           1
           7           0           6           1           7           0
           1           2           3           0           1           2
           8           0           3           2           8           0
           2           3           4           0           2           3
           9           0           4           3           9           0
           3           4           5           0           3           4
          10           0           5           4          10           0
           4           5           6           0           4           5
          11           0           6           5          11           0
           1           6           5           0           1           6
          12           0           5           6          12           0
           6           1           2           3           6           1
           2           8           7           1           2           3
           7           1           2           8           2           1
           6           5           2           1           6          12
           7           1           6           5           7           1
           6          12           1           2           3           4
           1           2           3           9           8           2
           3           4           8           2           3           9
           2           3           4           5           2           3
           4          10           9           3           4           5
           9           3           4          10           3           4
           5           6           3           4           5          11
          10           4           5           6          10           4
           5          11           4           5           6           1
           4           5           6          12          11           5
           6           1          11           5           6          12
Redundant internal coordinates             R   N=          54
  2.65436260E+00  2.65427575E+00  2.07052616E+00  2.65427855E+00  2.07052859E+00
  2.65435880E+00  2.07052595E+00  2.65427956E+00  2.07052618E+00  2.65436127E+00
  2.07052860E+00  2.07052598E+00  2.09439355E+00  2.09435768E+00  2.09443408E+00
  2.09440267E+00  2.09436283E+00  2.09441980E+00  2.09438902E+00  2.09443927E+00
  2.09435701E+00  2.09439353E+00  2.09436237E+00  2.09442941E+00  2.09440276E+00
  2.09443335E+00  2.09434920E+00  2.09438908E+00  2.09442755E+00  2.09436868E+00
 -1.22878304E-05 -3.14158689E+00  3.14157636E+00  1.76067167E-06 -8.27168813E-06
 -3.14158504E+00  3.14158839E+00  1.16171062E-05  2.28728019E-05 -3.14157999E+00
 -3.14158783E+00 -5.38507432E-06 -1.28982613E-05  3.14158171E+00  3.14158996E+00
 -7.42221439E-07 -7.66124042E-06 -3.14158287E+00  3.14158304E+00  7.83196017E-06
  1.82461966E-05 -3.14159029E+00 -3.14159185E+00 -1.50820585E-05
ZRed-IntVec                                I   N=          54
           0           0           0           0           0           0
           0           0           0           0           0           0
           0           0           0           0           0           0
           0           0           0           0           0           0
           0           0           0           0           0           0
           0           0           0           0           0           0
           0           0           0           0           0           0
           0           0           0           0           0           0
           0           0           0           0           0           0
ZRed-FPVec                                 R   N=          54
  0.00000000E+00  0.00000000E+00  0.00000000E+00  0.00000000E+00  0.00000000E+00
  0.00000000E+00  0.00000000E+00  0.00000000E+00  0.00000000E+00  0.00000000E+00
  0.00000000E+00  0.00000000E+00  0.00000000E+00  0.00000000E+00  0.00000000E+00
  0.00000000E+00  0.00000000E+00  0.00000000E+00  0.00000000E+00  0.00000000E+00
  0.00000000E+00  0.00000000E+00  0.00000000E+00  0.00000000E+00  0.00000000E+00
  0.00000000E+00  0.00000000E+00  0.00000000E+00  0.00000000E+00  0.00000000E+00
  0.00000000E+00  0.00000000E+00  0.00000000E+00  0.00000000E+00  0.00000000E+00
  0.00000000E+00  0.00000000E+00  0.00000000E+00  0.00000000E+00  0.00000000E+00
  0.00000000E+00  0.00000000E+00  0.00000000E+00  0.00000000E+00  0.00000000E+00
  0.00000000E+00  0.00000000E+00  0.00000000E+00  0.00000000E+00  0.00000000E+00
  0.00000000E+00  0.00000000E+00  0.00000000E+00  0.00000000E+00
ZRed-Constraint1                           R   N=          54
  2.65436260E+00  2.65427575E+00  2.07052616E+00  2.65427855E+00  2.07052859E+00
  2.65435880E+00  2.07052595E+00  2.65427956E+00  2.07052618E+00  2.65436127E+00
  2.07052860E+00  2.07052598E+00  2.09439355E+00  2.09435768E+00  2.09443408E+00
  2.09440267E+00  2.09436283E+00  2.09441980E+00  2.09438902E+00  2.09443927E+00
  2.09435701E+00  2.09439353E+00  2.09436237E+00  2.09442941E+00  2.09440276E+00
  2.09443335E+00  2.09434920E+00  2.09438908E+00  2.09442755E+00  2.09436868E+00
 -1.22878304E-05 -3.14158689E+00  3.14157636E+00  1.76073473E-06 -8.27168813E-06
 -3.14158504E+00  3.14158839E+00  1.16170966E-05  2.28728019E-05 -3.14157999E+00
 -3.14158783E+00 -5.38507432E-06 -1.28982613E-05  3.14158171E+00  3.14158996E+00
 -7.42221439E-07 -7.66124042E-06 -3.14158287E+00  3.14158304E+00  7.83197434E-06
  1.82461966E-05 -3.14159029E+00 -3.14159185E+00 -1.50820438E-05
ZRed-Constraint2                           R   N=          54
  2.63558234E+00  2.63522849E+00  2.06235456E+00  2.63521015E+00  2.06237313E+00
  2.63559675E+00  2.06233755E+00  2.63519106E+00  2.06234098E+00  2.63558689E+00
  2.06235606E+00  2.06235462E+00  2.09438812E+00  2.09432001E+00  2.09447718E+00
  2.09442032E+00  2.09428623E+00  2.09447872E+00  2.09437558E+00  2.09456068E+00
  2.09424904E+00  2.09438931E+00  2.09423091E+00  2.09456509E+00  2.09442736E+00
  2.09450998E+00  2.09424794E+00  2.09436987E+00  2.09448791E+00  2.09432751E+00
 -1.60604271E-04 -3.14148344E+00  3.14137609E+00  5.32447161E-05 -1.07724476E-04
 -3.14150224E+00  3.14154090E+00  1.46384207E-04  2.98989358E-04 -3.14140298E+00
 -3.14156351E+00 -8.01715348E-05 -1.69048348E-04  3.14147254E+00  3.14153290E+00
 -1.08192179E-05 -9.92806536E-05 -3.14147458E+00  3.14144443E+00  6.91282518E-05
  2.37665433E-04 -3.14155311E+00 -3.14157230E+00 -1.77772158E-04
SymInf integers                            I   N=          26
           1           1           1           1           1           0
           0           0           0           0           0           0
           0           0           0           0           0           0
           0           0           0           0           0           0
           0           0
RotTr to input orientation                 R   N=          12
 -9.42586548E-01 -3.33961962E-01 -8.65612474E-05 -3.33961821E-01  9.42586334E-01
 -7.10060123E-04  3.18724521E-04 -6.40384968E-04 -9.99999744E-01  3.54346219E+00
 -1.48666858E+00 -9.29207988E-04
Number of contracted shells                I               42
Number of primitive shells                 I               96
Pure/Cartesian d shells                    I                1
Pure/Cartesian f shells                    I                0
Highest angular momentum                   I                2
Largest degree of contraction              I                6
Shell types                                I   N=          42
           0          -1          -1          -1           2           0
          -1          -1          -1           2           0          -1
          -1          -1           2           0          -1          -1
          -1           2           0          -1          -1          -1
           2           0          -1          -1          -1           2
           0           0           0           0           0           0
           0           0           0           0           0           0
Number of primitives per shell             I   N=          42
           6           3           1           1           1           6
           3           1           1           1           6           3
           1           1           1           6           3           1
           1           1           6           3           1           1
           1           6           3           1           1           1
           3           1           3           1           3           1
           3           1           3           1           3           1
Shell to atom map                          I   N=          42
           1           1           1           1           1           2
           2           2           2           2           3           3
           3           3           3           4           4           4
           4           4           5           5           5           5
           5           6           6           6           6           6
           7           7           8           8           9           9
          10          10          11          11          12          12
Primitive exponents                        R   N=          96
  3.04752488E+03  4.57369518E+02  1.03948685E+02  2.92101553E+01  9.28666296E+00
  3.16392696E+00  7.86827235E+00  1.88128854E+00  5.44249258E-01  1.68714478E-01
  4.38000000E-02  8.00000000E-01  3.04752488E+03  4.57369518E+02  1.03948685E+02
  2.92101553E+01  9.28666296E+00  3.16392696E+00  7.86827235E+00  1.88128854E+00
  5.44249258E-01  1.68714478E-01  4.38000000E-02  8.00000000E-01  3.04752488E+03
  4.57369518E+02  1.03948685E+02  2.92101553E+01  9.28666296E+00  3.16392696E+00
  7.86827235E+00  1.88128854E+00  5.44249258E-01  1.68714478E-01  4.38000000E-02
  8.00000000E-01  3.04752488E+03  4.57369518E+02  1.03948685E+02  2.92101553E+01
  9.28666296E+00  3.16392696E+00  7.86827235E+00  1.88128854E+00  5.44249258E-01
  1.68714478E-01  4.38000000E-02  8.00000000E-01  3.04752488E+03  4.57369518E+02
  1.03948685E+02  2.92101553E+01  9.28666296E+00  3.16392696E+00  7.86827235E+00
  1.88128854E+00  5.44249258E-01  1.68714478E-01  4.38000000E-02  8.00000000E-01
  3.04752488E+03  4.57369518E+02  1.03948685E+02  2.92101553E+01  9.28666296E+00
  3.16392696E+00  7.86827235E+00  1.88128854E+00  5.44249258E-01  1.68714478E-01
  4.38000000E-02  8.00000000E-01  1.87311370E+01  2.82539436E+00  6.40121692E-01
  1.61277759E-01  1.87311370E+01  2.82539436E+00  6.40121692E-01  1.61277759E-01
  1.87311370E+01  2.82539436E+00  6.40121692E-01  1.61277759E-01  1.87311370E+01
  2.82539436E+00  6.40121692E-01  1.61277759E-01  1.87311370E+01  2.82539436E+00
  6.40121692E-01  1.61277759E-01  1.87311370E+01  2.82539436E+00  6.40121692E-01
  1.61277759E-01
Contraction coefficients                   R   N=          96
  1.83473713E-03  1.40373228E-02  6.88426223E-02  2.32184443E-01  4.67941348E-01
  3.62311985E-01 -1.19332420E-01 -1.60854152E-01  1.14345644E+00  1.00000000E+00
  1.00000000E+00  1.00000000E+00  1.83473713E-03  1.40373228E-02  6.88426223E-02
  2.32184443E-01  4.67941348E-01  3.62311985E-01 -1.19332420E-01 -1.60854152E-01
  1.14345644E+00  1.00000000E+00  1.00000000E+00  1.00000000E+00  1.83473713E-03
  1.40373228E-02  6.88426223E-02  2.32184443E-01  4.67941348E-01  3.62311985E-01
 -1.19332420E-01 -1.60854152E-01  1.14345644E+00  1.00000000E+00  1.00000000E+00
  1.00000000E+00  1.83473713E-03  1.40373228E-02  6.88426223E-02  2.32184443E-01
  4.67941348E-01  3.62311985E-01 -1.19332420E-01 -1.60854152E-01  1.14345644E+00
  1.00000000E+00  1.00000000E+00  1.00000000E+00  1.83473713E-03  1.40373228E-02
  6.88426223E-02  2.32184443E-01  4.67941348E-01  3.62311985E-01 -1.19332420E-01
 -1.60854152E-01  1.14345644E+00  1.00000000E+00  1.00000000E+00  1.00000000E+00
  1.83473713E-03  1.40373228E-02  6.88426223E-02  2.32184443E-01  4.67941348E-01
  3.62311985E-01 -1.19332420E-01 -1.60854152E-01  1.14345644E+00  1.00000000E+00
  1.00000000E+00  1.00000000E+00  3.34946043E-02  2.34726953E-01  8.13757326E-01
  1.00000000E+00  3.34946043E-02  2.34726953E-01  8.13757326E-01  1.00000000E+00
  3.34946043E-02  2.34726953E-01  8.13757326E-01  1.00000000E+00  3.34946043E-02
  2.34726953E-01  8.13757326E-01  1.00000000E+00  3.34946043E-02  2.34726953E-01
  8.13757326E-01  1.00000000E+00  3.34946043E-02  2.34726953E-01  8.13757326E-01
  1.00000000E+00
P(S=P) Contraction coefficients            R   N=          96
  0.00000000E+00  0.00000000E+00  0.00000000E+00  0.00000000E+00  0.00000000E+00
  0.00000000E+00  6.89990666E-02  3.16423961E-01  7.44308291E-01  1.00000000E+00
  1.00000000E+00  0.00000000E+00  0.00000000E+00  0.00000000E+00  0.00000000E+00
  0.00000000E+00  0.00000000E+00  0.00000000E+00  6.89990666E-02  3.16423961E-01
  7.44308291E-01  1.00000000E+00  1.00000000E+00  0.00000000E+00  0.00000000E+00
  0.00000000E+00  0.00000000E+00  0.00000000E+00  0.00000000E+00  0.00000000E+00
  6.89990666E-02  3.16423961E-01  7.44308291E-01  1.00000000E+00  1.00000000E+00
  0.00000000E+00  0.00000000E+00  0.00000000E+00  0.00000000E+00  0.00000000E+00
  0.00000000E+00  0.00000000E+00  6.89990666E-02  3.16423961E-01  7.44308291E-01
  1.00000000E+00  1.00000000E+00  0.00000000E+00  0.00000000E+00  0.00000000E+00
  0.00000000E+00  0.00000000E+00  0.00000000E+00  0.00000000E+00  6.89990666E-02
  3.16423961E-01  7.44308291E-01  1.00000000E+00  1.00000000E+00  0.00000000E+00
  0.00000000E+00  0.00000000E+00  0.00000000E+00  0.00000000E+00  0.00000000E+00
  0.00000000E+00  6.89990666E-02  3.16423961E-01  7.44308291E-01  1.00000000E+00
  1.00000000E+00  0.00000000E+00  0.00000000E+00  0.00000000E+00  0.00000000E+00
  0.00000000E+00  0.00000000E+00  0.00000000E+00  0.00000000E+00  0.00000000E+00
  0.00000000E+00  0.00000000E+00  0.00000000E+00  0.00000000E+00  0.00000000E+00
  0.00000000E+00  0.00000000E+00  0.00000000E+00  0.00000000E+00  0.00000000E+00
  0.00000000E+00  0.00000000E+00  0.00000000E+00  0.00000000E+00  0.00000000E+00
  0.00000000E+00
Coordinates of each shell                  R   N=         126
  2.01875312E+00 -1.72338549E+00  5.26568166E-08  2.01875312E+00 -1.72338549E+00
  5.26568166E-08  2.01875312E+00 -1.72338549E+00  5.26568166E-08  2.01875312E+00
 -1.72338549E+00  5.26568166E-08  2.01875312E+00 -1.72338549E+00  5.26568166E-08
 -4.83170220E-01 -2.60996339E+00 -1.37594252E-05 -4.83170220E-01 -2.60996339E+00
 -1.37594252E-05 -4.83170220E-01 -2.60996339E+00 -1.37594252E-05 -4.83170220E-01
 -2.60996339E+00 -1.37594252E-05 -4.83170220E-01 -2.60996339E+00 -1.37594252E-05
 -2.50188000E+00 -8.86593019E-01  1.15870621E-05 -2.50188000E+00 -8.86593019E-01
  1.15870621E-05 -2.50188000E+00 -8.86593019E-01  1.15870621E-05 -2.50188000E+00
 -8.86593019E-01  1.15870621E-05 -2.50188000E+00 -8.86593019E-01  1.15870621E-05
 -2.01872190E+00  1.72342209E+00 -1.83224482E-06 -2.01872190E+00  1.72342209E+00
 -1.83224482E-06 -2.01872190E+00  1.72342209E+00 -1.83224482E-06 -2.01872190E+00
  1.72342209E+00 -1.83224482E-06 -2.01872190E+00  1.72342209E+00 -1.83224482E-06
  4.83123249E-01  2.60997205E+00 -1.09485367E-05  4.83123249E-01  2.60997205E+00
 -1.09485367E-05  4.83123249E-01  2.60997205E+00 -1.09485367E-05  4.83123249E-01
  2.60997205E+00 -1.09485367E-05  4.83123249E-01  2.60997205E+00 -1.09485367E-05
  2.50189595E+00  8.86547988E-01  1.09652507E-05  2.50189595E+00  8.86547988E-01
  1.09652507E-05  2.50189595E+00  8.86547988E-01  1.09652507E-05  2.50189595E+00
  8.86547988E-01  1.09652507E-05  2.50189595E+00  8.86547988E-01  1.09652507E-05
  3.59342993E+00 -3.06780788E+00  9.49294216E-06  3.59342993E+00 -3.06780788E+00
  9.49294216E-06 -8.59994305E-01 -4.64591335E+00 -1.19353292E-05 -8.59994305E-01
 -4.64591335E+00 -1.19353292E-05 -4.45352158E+00 -1.57809348E+00  2.35283893E-05
 -4.45352158E+00 -1.57809348E+00  2.35283893E-05 -3.59349505E+00  3.06773166E+00
 -1.68903117E-06 -3.59349505E+00  3.06773166E+00 -1.68903117E-06  8.60091067E-01
  4.64589542E+00 -3.87370785E-06  8.60091067E-01  4.64589542E+00 -3.87370785E-06
  4.45348873E+00  1.57818624E+00  8.08816000E-06  4.45348873E+00  1.57818624E+00
  8.08816000E-06
Num ILSW                                   I              100
ILSW                                       I   N=         100
           0           1           0           0           2           0
           0           0           0           0        1009134217728000
           5           0           0           0           2           0
           0           0           0           0           1           0
           1           0           0           0           0           0
           0           0      100000           0          -1           0
           0           0           0           0           0           0
           0           0           0           1           0           0
           0 -2000000000           1           0           0           0
           0           0           4          52           0           0
           0           0           0           0           0           0
           0           0           0          12           0           1
           0           0           0           0           0           0
           0           0           0           0           0           0
           0           0           0           0           0           0
           0           0           0           0           0           0
           0           0           0           0
Num RLSW                                   I               52
RLSW                                       R   N=          52
  1.00000000E+00  1.00000000E+00  1.00000000E+00  1.00000000E+00  0.00000000E+00
  0.00000000E+00  0.00000000E+00  1.00000000E+00  0.00000000E+00  0.00000000E+00
  0.00000000E+00  0.00000000E+00  1.00000000E+00  0.00000000E+00  0.00000000E+00
  0.00000000E+00  0.00000000E+00  1.00000000E+00  0.00000000E+00  0.00000000E+00
  0.00000000E+00  0.00000000E+00  1.00000000E+00  0.00000000E+00  0.00000000E+00
  0.00000000E+00  0.00000000E+00  1.00000000E+00  0.00000000E+00  0.00000000E+00
  0.00000000E+00  0.00000000E+00  1.00000000E+00  0.00000000E+00  0.00000000E+00
  0.00000000E+00  0.00000000E+00  0.00000000E+00  1.00000000E+00  1.00000000E+00
  0.00000000E+00  1.00000000E+00  0.00000000E+00  0.00000000E+00  0.00000000E+00
  0.00000000E+00  0.00000000E+00  0.00000000E+00  0.00000000E+00  0.00000000E+00
  0.00000000E+00  0.00000000E+00
MxBond                                     I                3
NBond                                      I   N=          12
           3           3           3           3           3           3
           1           1           1           1           1           1
IBond                                      I   N=          36
           2           6           7           1           3           8
           2           4           9           3           5          10
           4           6          11           1           5          12
           1           0           0           2           0           0
           3           0           0           4           0           0
           5           0           0           6           0           0
RBond                                      R   N=          36
  1.50000000E+00  1.50000000E+00  1.00000000E+00  1.50000000E+00  1.50000000E+00
  1.00000000E+00  1.50000000E+00  1.50000000E+00  1.00000000E+00  1.50000000E+00
  1.50000000E+00  1.00000000E+00  1.50000000E+00  1.50000000E+00  1.00000000E+00
  1.50000000E+00  1.50000000E+00  1.00000000E+00  1.00000000E+00  0.00000000E+00
  0.00000000E+00  1.00000000E+00  0.00000000E+00  0.00000000E+00  1.00000000E+00
  0.00000000E+00  0.00000000E+00  1.00000000E+00  0.00000000E+00  0.00000000E+00
  1.00000000E+00  0.00000000E+00  0.00000000E+00  1.00000000E+00  0.00000000E+00
  0.00000000E+00
Virial Ratio                               R      2.010648501813648E+00
SCF Energy                                 R     -2.319449776277818E+02
Total Energy                               R     -2.319449776277818E+02
RMS Force                                  R      1.003808889439196E-05
RMS Density                                R      3.282451853072957E-09
NImag                                      I                0
Job Status                                 I                1
Nuclear derivative order                   I                2
External E-field                           R   N=          35
  0.00000000E+00  0.00000000E+00  0.00000000E+00  0.00000000E+00  0.00000000E+00
  0.00000000E+00  0.00000000E+00  0.00000000E+00  0.00000000E+00  0.00000000E+00
  0.00000000E+00  0.00000000E+00  0.00000000E+00  0.00000000E+00  0.00000000E+00
  0.00000000E+00  0.00000000E+00  0.00000000E+00  0.00000000E+00  0.00000000E+00
  0.00000000E+00  0.00000000E+00  0.00000000E+00  0.00000000E+00  0.00000000E+00
  0.00000000E+00  0.00000000E+00  0.00000000E+00  0.00000000E+00  0.00000000E+00
  0.00000000E+00  0.00000000E+00  0.00000000E+00  0.00000000E+00  0.00000000E+00
IOpCl                                      I                0
IROHF                                      I                0
Alpha Orbital Energies                     R   N=         126
 -9.91197868E+00 -9.91180012E+00 -9.91180002E+00 -9.91143873E+00 -9.91143864E+00
 -9.91127008E+00 -7.75738269E-01 -6.75538874E-01 -6.75537395E-01 -5.43364062E-01
 -5.43363930E-01 -4.70865709E-01 -4.12983429E-01 -3.95789870E-01 -3.74892828E-01
 -3.74890514E-01 -3.27754692E-01 -3.02268502E-01 -3.02266693E-01 -2.29034202E-01
 -2.29032976E-01 -4.20787369E-02 -4.20786896E-02 -4.50310269E-03  1.55104908E-02
  1.55105683E-02  3.61057428E-02  3.61059412E-02  5.53630109E-02  6.46045490E-02
  6.96520645E-02  8.21288791E-02  8.21328274E-02  8.91822842E-02  9.42798283E-02
  1.30426211E-01  1.30428782E-01  1.34975832E-01  1.34975909E-01  1.42123228E-01
  1.42127752E-01  1.70478590E-01  1.80673439E-01  1.80673944E-01  1.83439844E-01
  1.99542059E-01  1.99544021E-01  2.17068541E-01  2.22515800E-01  2.22515974E-01
  2.46322907E-01  2.46324377E-01  2.62141813E-01  3.01583907E-01  3.10111225E-01
  3.10112011E-01  3.12721867E-01  3.12722508E-01  5.12212825E-01  5.43015956E-01
  5.47102361E-01  5.82607555E-01  6.18977755E-01  6.76587170E-01  6.76588418E-01
  6.77643631E-01  6.77647467E-01  7.04419752E-01  7.04420655E-01  7.22286484E-01
  7.22288004E-01  7.61666276E-01  7.86978992E-01  8.45083621E-01  8.81584725E-01
  8.81585773E-01  9.19124129E-01  9.19125988E-01  9.23975393E-01  9.83943976E-01
  1.02817712E+00  1.02817983E+00  1.08718569E+00  1.08719312E+00  1.12754423E+00
  1.12754488E+00  1.18648371E+00  1.25845918E+00  1.32756573E+00  1.37774858E+00
  1.37775200E+00  1.40727845E+00  1.40728065E+00  1.43523942E+00  1.43524245E+00
  1.67561886E+00  1.74092741E+00  1.80245820E+00  1.83917558E+00  1.90009491E+00
  1.90009881E+00  2.01852731E+00  2.01853109E+00  2.06817304E+00  2.06817853E+00
  2.07832936E+00  2.07833342E+00  2.21387841E+00  2.21388115E+00  2.23293846E+00
  2.48794732E+00  2.48794908E+00  2.54549245E+00  2.60000224E+00  2.60000429E+00
  2.64381148E+00  2.64381156E+00  2.74389755E+00  2.92829035E+00  3.28344002E+00
  4.12679181E+00  4.15257658E+00  4.15257900E+00  4.28935778E+00  4.28935878E+00
  4.58229664E+00
Alpha MO coefficients                      R   N=       15876
  4.05075489E-01  2.14031591E-02  9.27219884E-05 -7.92905649E-05  3.70349103E-10
 -4.17495386E-03 -2.99446216E-04  2.56376745E-04 -1.33094848E-09  3.35295950E-04
 -4.30158300E-04  3.66575594E-04 -3.36814033E-08 -4.20282280E-03 -4.23006566E-03
 -4.25649307E-03 -9.89249624E-05 -8.40327437E-10 -1.40003798E-09  4.04962062E-01