25
Coordinates from ORCA-job CO_H10C10N2O3_ff1ead45b85fb8873df139752b8b97eb~3_scan Relaxed Surface Scan Step 1
  C      -3.640240     -1.546545      0.175299
  O      -4.517634     -2.572499      0.293763
  C      -4.227234     -0.280874      0.045786
  C      -2.263846     -1.676560      0.176233
  C      -4.008348     -3.878613      0.436640
  C      -3.455351      0.858945     -0.084196
  H      -5.303459     -0.240273      0.052173
  C      -1.466884     -0.539374      0.046503
  H      -1.763451     -2.624302      0.273140
  H      -3.399810     -3.973149      1.340810
  H      -3.414627     -4.173219     -0.433720
  H      -4.879565     -4.526654      0.516853
  C      -2.042301      0.740492     -0.085480
  O      -3.955134      2.099009     -0.211509
  N      -0.103498     -0.727608      0.053720
  C      -1.180159      1.904172     -0.220008
  C      -5.350386      2.280719     -0.219245
  C       0.640382      0.301953     -0.063699
  N       0.184073      1.569617     -0.195520
  O      -1.492919      3.066274     -0.344653
  H      -5.501232      3.352620     -0.334067
  H      -5.804231      1.947813      0.719636
  H      -5.819487      1.755309     -1.057183
  H       0.823119      2.349574     -0.286359
  H       1.714597      0.165405     -0.058907
>
25
Coordinates from ORCA-job CO_H10C10N2O3_ff1ead45b85fb8873df139752b8b97eb~3_scan Relaxed Surface Scan Step 2
  C      -3.634335     -1.563165      0.037794
  O      -4.505566     -2.600566      0.105347
  C      -4.223916     -0.294368     -0.027821
  C      -2.257620     -1.689446      0.055773
  C      -4.016002     -3.857665      0.514872
  C      -3.453812      0.851950     -0.105455
  H      -5.300290     -0.256160     -0.028195
  C      -1.462444     -0.546192     -0.017124
  H      -1.757974     -2.640869      0.114181
  H      -3.460004     -3.779997      1.453277
  H      -3.376192     -4.309252     -0.249682
  H      -4.895108     -4.483380      0.660526
  C      -2.040701      0.736716     -0.100087
  O      -3.955878      2.095545     -0.175198
  N      -0.098621     -0.730742     -0.003543
  C      -1.180500      1.907353     -0.177271
  C      -5.351509      2.274307     -0.187811
  C       0.643237      0.304608     -0.072247
  N       0.184199      1.575481     -0.156497
  O      -1.495887      3.072838     -0.254429
  H      -5.504052      3.349923     -0.256341
  H      -5.813002      1.899232      0.731241
  H      -5.811545      1.785473     -1.052468
  H       0.822156      2.359814     -0.209646
  H       1.717742      0.170795     -0.063185
>
25
Coordinates from ORCA-job CO_H10C10N2O3_ff1ead45b85fb8873df139752b8b97eb~3_scan Relaxed Surface Scan Step 3
  C      -3.613970     -1.582612     -0.092099
  O      -4.468219     -2.640926     -0.072427
  C      -4.212062     -0.317700     -0.094997
  C      -2.236714     -1.701877     -0.061598
  C      -4.044200     -3.813734      0.588438
  C      -3.447755      0.836230     -0.122632
  H      -5.288691     -0.284696     -0.099411
  C      -1.447273     -0.553041     -0.080447
  H      -1.738084     -2.655674     -0.038729
  H      -3.574170     -3.579147      1.547047
  H      -3.345956     -4.394130     -0.023271
  H      -4.944479     -4.403678      0.753991
  C      -2.034610      0.728523     -0.114358
  O      -3.957007      2.078576     -0.135794
  N      -0.082396     -0.728437     -0.063293
  C      -1.181294      1.907363     -0.137928
  C      -5.353652      2.249882     -0.152769
  C       0.652590      0.313703     -0.085380
  N       0.185112      1.583993     -0.122097
  O      -1.504767      3.072621     -0.169774
  H      -5.511939      3.326535     -0.178544
  H      -5.820307      1.835231      0.746474
  H      -5.803758      1.794218     -1.040413
  H       0.818076      2.373979     -0.140075
  H       1.727899      0.187031     -0.073903
>
25
Coordinates from ORCA-job CO_H10C10N2O3_ff1ead45b85fb8873df139752b8b97eb~3_scan Relaxed Surface Scan Step 4
  C      -3.575338     -1.606888     -0.199274
  O      -4.407575     -2.690592     -0.228938
  C      -4.186993     -0.351470     -0.147965
  C      -2.197319     -1.713847     -0.171589
  C      -4.107694     -3.748723      0.658186
  C      -3.433902      0.811732     -0.131775
  H      -5.264100     -0.327990     -0.151917
  C      -1.418527     -0.558303     -0.144206
  H      -1.694889     -2.666140     -0.186041
  H      -3.866265     -3.369857      1.654848
  H      -3.276764     -4.362683      0.296503
  H      -5.006620     -4.361341      0.705278
  C      -2.020483      0.717284     -0.127713
  O      -3.955772      2.048088     -0.095020
  N      -0.051916     -0.718988     -0.133467
  C      -1.179010      1.905840     -0.105229
  C      -5.354177      2.206194     -0.109522
  C       0.671698      0.330989     -0.115391
  N       0.190287      1.596838     -0.102753
  O      -1.515828      3.067429     -0.090700
  H      -5.522985      3.281460     -0.095840
  H      -5.818888      1.754253      0.772600
  H      -5.797615      1.779423     -1.014653
  H       0.814757      2.393716     -0.090559
  H       1.748294      0.215807     -0.108851
>
25
Coordinates from ORCA-job CO_H10C10N2O3_ff1ead45b85fb8873df139752b8b97eb~3_scan Relaxed Surface Scan Step 5
  C      -3.520793     -1.635786     -0.266191
  O      -4.325326     -2.746753     -0.350732
  C      -4.149604     -0.393535     -0.175637
  C      -2.141981     -1.727506     -0.268589
  C      -4.217112     -3.662322      0.719129
  C      -3.409626      0.779324     -0.125941
  H      -5.227075     -0.380546     -0.172066
  C      -1.376432     -0.564649     -0.208156
  H      -1.635463     -2.675841     -0.336230
  H      -4.513981     -3.194490      1.664041
  H      -3.202509     -4.057753      0.822074
  H      -4.900615     -4.476631      0.485937
  C      -1.996256      0.701013     -0.136172
  O      -3.946432      2.007211     -0.050389
  N      -0.007954     -0.705566     -0.223703
  C      -1.169316      1.900029     -0.077452
  C      -5.346813      2.148944     -0.053491
  C       0.701634      0.352802     -0.175499
  N       0.203194      1.610543     -0.105938
  O      -1.522473      3.054696     -0.010252
  H      -5.528053      3.221280     -0.007823
  H      -5.801643      1.666570      0.817614
  H      -5.789838      1.743452     -0.968511
  H       0.817221      2.414865     -0.070569
  H       1.779620      0.252884     -0.189446
>
25
Coordinates from ORCA-job CO_H10C10N2O3_ff1ead45b85fb8873df139752b8b97eb~3_scan Relaxed Surface Scan Step 6
  C      -3.454143     -1.672450     -0.326701
  O      -4.219796     -2.813710     -0.441890
  C      -4.106194     -0.446331     -0.201504
  C      -2.075529     -1.741311     -0.344854
  C      -4.328956     -3.560434      0.751531
  C      -3.386163      0.737544     -0.120780
  H      -5.184088     -0.451258     -0.191632
  C      -1.328707     -0.567042     -0.256688
  H      -1.560114     -2.682475     -0.440673
  H      -4.831654     -2.981494      1.534852
  H      -3.346998     -3.876258      1.119302
  H      -4.925999     -4.436758      0.506946
  C      -1.971639      0.683837     -0.143504
  O      -3.943192      1.953766     -0.010925
  N       0.041650     -0.681973     -0.284835
  C      -1.165886      1.896483     -0.056875
  C      -5.345754      2.071843     -0.003632
  C       0.732199      0.387457     -0.211209
  N       0.211056      1.633397     -0.103398
  O      -1.540226      3.041655      0.045667
  H      -5.544779      3.139336      0.071543
  H      -5.788090      1.559015      0.856527
  H      -5.786721      1.683665     -0.927124
  H       0.810421      2.447765     -0.049699
  H       1.811679      0.307963     -0.234433
>
25
Coordinates from ORCA-job CO_H10C10N2O3_ff1ead45b85fb8873df139752b8b97eb~3_scan Relaxed Surface Scan Step 7
  C      -3.367122     -1.715984     -0.335399
  O      -4.092549     -2.881759     -0.471704
  C      -4.047012     -0.506048     -0.194755
  C      -1.988771     -1.751928     -0.380583
  C      -4.478104     -3.466699      0.753975
  C      -3.353265      0.692298     -0.104703
  H      -5.124767     -0.531896     -0.174679
  C      -1.267620     -0.561313     -0.288268
  H      -1.457982     -2.681833     -0.496669
  H      -5.111506     -2.791316      1.340435
  H      -3.603015     -3.741336      1.353406
  H      -5.041013     -4.362383      0.498869
  C      -1.938114      0.671786     -0.146309
  O      -3.936575      1.894854      0.021903
  N       0.104290     -0.642941     -0.337541
  C      -1.160071      1.902059     -0.051739
  C      -5.341045      1.981453      0.046693
  C       0.770532      0.441287     -0.256724
  N       0.221717      1.672703     -0.122025
  O      -1.560006      3.036067      0.075349
  H      -5.562874      3.043277      0.136670
  H      -5.761996      1.449309      0.905984
  H      -5.784291      1.594479     -0.876286
  H       0.802408      2.500194     -0.063586
  H       1.851126      0.387902     -0.296302
>
25
Coordinates from ORCA-job CO_H10C10N2O3_ff1ead45b85fb8873df139752b8b97eb~3_scan Relaxed Surface Scan Step 8
  C      -3.279413     -1.757758     -0.287134
  O      -3.955894     -2.946897     -0.430209
  C      -3.983952     -0.559802     -0.150721
  C      -1.901579     -1.757948     -0.369743
  C      -4.639545     -3.398108      0.719796
  C      -3.315879      0.653247     -0.076755
  H      -5.060900     -0.601120     -0.116346
  C      -1.206450     -0.550996     -0.298706
  H      -1.354168     -2.676543     -0.495154
  H      -5.391046     -2.678752      1.061918
  H      -3.938889     -3.595732      1.538418
  H      -5.132843     -4.324602      0.432319
  C      -1.901552      0.666766     -0.143847
  O      -3.924816      1.843782      0.048911
  N       0.165669     -0.600824     -0.377885
  C      -1.151099      1.914470     -0.065215
  C      -5.329787      1.899922      0.099598
  C       0.808015      0.498670     -0.311586
  N       0.233983      1.717184     -0.164966
  O      -1.574118      3.039150      0.071455
  H      -5.573012      2.957072      0.189332
  H      -5.723286      1.362958      0.969015
  H      -5.782016      1.499818     -0.813528
  H       0.796492      2.557848     -0.118290
  H       1.888463      0.470426     -0.374666
>
25
Coordinates from ORCA-job CO_H10C10N2O3_ff1ead45b85fb8873df139752b8b97eb~3_scan Relaxed Surface Scan Step 9
  C      -3.210430     -1.790448     -0.216332
  O      -3.837109     -3.000291     -0.347330
  C      -3.931021     -0.600511     -0.087826
  C      -1.833260     -1.762660     -0.337234
  C      -4.782047     -3.343009      0.644861
  C      -3.280955      0.623757     -0.041249
  H      -5.005857     -0.648527     -0.025185
  C      -1.158004     -0.545242     -0.297286
  H      -1.276027     -2.674666     -0.465545
  H      -5.699594     -2.750471      0.568146
  H      -4.361008     -3.223255      1.647361
  H      -5.023703     -4.390649      0.474703
  C      -1.869599      0.663428     -0.139156
  O      -3.908960      1.805297      0.081139
  N       0.212961     -0.572304     -0.408105
  C      -1.139892      1.923618     -0.088939
  C      -5.312268      1.839078      0.171168
  C       0.837081      0.538690     -0.367396
  N       0.246018      1.748907     -0.218843
  O      -1.578357      3.042643      0.048025
  H      -5.569951      2.892875      0.260351
  H      -5.672911      1.302528      1.055082
  H      -5.783931      1.425740     -0.726320
  H       0.795072      2.599204     -0.192266
  H       1.916128      0.528500     -0.455811
>
25
Coordinates from ORCA-job CO_H10C10N2O3_ff1ead45b85fb8873df139752b8b97eb~3_scan Relaxed Surface Scan Step 10
  C      -3.153642     -1.818534     -0.143425
  O      -3.743943     -3.041685     -0.236626
  C      -3.888463     -0.636751     -0.018635
  C      -1.777956     -1.770163     -0.296105
  C      -4.886255     -3.286291      0.556369
  C      -3.254428      0.597127     -0.002378
  H      -4.960367     -0.694924      0.073835
  C      -1.121318     -0.544054     -0.287425
  H      -1.211053     -2.676310     -0.421551
  H      -5.793077     -2.868898      0.104980
  H      -4.765284     -2.881684      1.564677
  H      -4.987890     -4.369261      0.608222
  C      -1.847018      0.657650     -0.131587
  O      -3.898196      1.770762      0.118124
  N       0.247673     -0.552263     -0.427477
  C      -1.135823      1.928100     -0.114268
  C      -5.299264      1.785791      0.238614
  C       0.855392      0.568271     -0.415056
  N       0.249860      1.771895     -0.270399
  O      -1.587548      3.043025      0.015565
  H      -5.570178      2.836982      0.319136
  H      -5.633232      1.256647      1.137431
  H      -5.784661      1.353638     -0.642652
  H       0.786642      2.630312     -0.266959
  H       1.932404      0.572849     -0.526401
>
25
Coordinates from ORCA-job CO_H10C10N2O3_ff1ead45b85fb8873df139752b8b97eb~3_scan Relaxed Surface Scan Step 11
  C      -3.114215     -1.835641     -0.059160
  O      -3.670217     -3.073431     -0.087366
  C      -3.859414     -0.659624      0.054505
  C      -1.739487     -1.774092     -0.230682
  C      -4.949040     -3.256656      0.476425
  C      -3.237695      0.581111      0.028593
  H      -4.928805     -0.719722      0.167356
  C      -1.097337     -0.542350     -0.262827
  H      -1.164674     -2.677365     -0.338464
  H      -5.738375     -2.852756     -0.166800
  H      -5.018011     -2.800806      1.468287
  H      -5.082489     -4.333923      0.562462
  C      -1.834344      0.655629     -0.127033
  O      -3.892930      1.749977      0.135691
  N       0.269585     -0.538656     -0.424832
  C      -1.138341      1.933549     -0.154879
  C      -5.291148      1.753745      0.284488
  C       0.863926      0.588667     -0.450689
  N       0.246766      1.788932     -0.327895
  O      -1.600894      3.046794     -0.049100
  H      -5.571129      2.803758      0.347672
  H      -5.601592      1.241403      1.201330
  H      -5.790275      1.297952     -0.577097
  H       0.773511      2.653066     -0.355021
  H       1.939003      0.602672     -0.578951
>
25
Coordinates from ORCA-job CO_H10C10N2O3_ff1ead45b85fb8873df139752b8b97eb~3_scan Relaxed Surface Scan Step 12
  C      -3.089552     -1.842986      0.030922
  O      -3.621277     -3.088867      0.077957
  C      -3.840442     -0.669764      0.130699
  C      -1.715781     -1.775314     -0.154139
  C      -4.984578     -3.245146      0.393265
  C      -3.227558      0.574129      0.058055
  H      -4.906920     -0.728740      0.266316
  C      -1.083556     -0.541410     -0.230880
  H      -1.135724     -2.677681     -0.238407
  H      -5.630566     -2.823045     -0.383693
  H      -5.228640     -2.791767      1.359118
  H      -5.151169     -4.319674      0.448661
  C      -1.828179      0.655201     -0.123406
  O      -3.889512      1.740794      0.148030
  N       0.281146     -0.532490     -0.411862
  C      -1.143207      1.936547     -0.202793
  C      -5.284192      1.739925      0.326094
  C       0.865849      0.597941     -0.481306
  N       0.240793      1.796925     -0.388918
  O      -1.613513      3.049308     -0.130153
  H      -5.569622      2.789550      0.367927
  H      -5.572077      1.249943      1.262311
  H      -5.798600      1.259083     -0.512683
  H       0.760213      2.663658     -0.450932
  H       1.939039      0.616114     -0.624173
>
25
Coordinates from ORCA-job CO_H10C10N2O3_ff1ead45b85fb8873df139752b8b97eb~3_scan Relaxed Surface Scan Step 13
  C      -3.077459     -1.841901      0.123436
  O      -3.598700     -3.086796      0.249537
  C      -3.830000     -0.668648      0.208638
  C      -1.705322     -1.774701     -0.073522
  C      -4.996570     -3.245887      0.306337
  C      -3.223402      0.574617      0.087796
  H      -4.893144     -0.726737      0.368709
  C      -1.079032     -0.541503     -0.196102
  H      -1.122256     -2.677153     -0.132458
  H      -5.486991     -2.807821     -0.568562
  H      -5.416873     -2.810009      1.218778
  H      -5.169060     -4.320883      0.314456
  C      -1.827643      0.655052     -0.119814
  O      -3.887595      1.741283      0.159296
  N       0.283206     -0.533162     -0.394744
  C      -1.149810      1.935683     -0.253550
  C      -5.278141      1.741218      0.367134
  C       0.861961      0.596643     -0.509413
  N       0.232616      1.795501     -0.450581
  O      -1.624745      3.048231     -0.216547
  H      -5.566375      2.790751      0.385626
  H      -5.544110      1.276895      1.322663
  H      -5.808755      1.235482     -0.446592
  H       0.747284      2.661718     -0.548842
  H       1.933292      0.614361     -0.665666
>
25
Coordinates from ORCA-job CO_H10C10N2O3_ff1ead45b85fb8873df139752b8b97eb~3_scan Relaxed Surface Scan Step 14
  C      -3.078047     -1.832290      0.216588
  O      -3.603509     -3.067075      0.421215
  C      -3.828226     -0.656091      0.287240
  C      -1.708664     -1.772384      0.006712
  C      -4.984990     -3.258794      0.216659
  C      -3.225176      0.582713      0.118650
  H      -4.887873     -0.714266      0.470865
  C      -1.084219     -0.542588     -0.161570
  H      -1.124837     -2.675665     -0.027823
  H      -5.313629     -2.821749     -0.730628
  H      -5.579209     -2.841311      1.036832
  H      -5.132923     -4.337270      0.189186
  C      -1.832603      0.655136     -0.115188
  O      -3.886867      1.751633      0.171369
  N       0.275098     -0.540644     -0.378128
  C      -1.157554      1.930907     -0.302587
  C      -5.272823      1.757623      0.408558
  C       0.851992      0.584833     -0.537113
  N       0.222552      1.784706     -0.510550
  O      -1.633407      3.043559     -0.299566
  H      -5.561195      2.807257      0.403688
  H      -5.517940      1.320116      1.382061
  H      -5.820179      1.229088     -0.379179
  H       0.735294      2.647326     -0.644385
  H       1.921313      0.597464     -0.706895
>
25
Coordinates from ORCA-job CO_H10C10N2O3_ff1ead45b85fb8873df139752b8b97eb~3_scan Relaxed Surface Scan Step 15
  C      -3.094130     -1.812572      0.307932
  O      -3.636664     -3.030810      0.583820
  C      -3.837183     -0.630512      0.364956
  C      -1.729149     -1.767576      0.080178
  C      -4.945852     -3.290157      0.123598
  C      -3.233210      0.600159      0.152357
  H      -4.893533     -0.686895      0.569305
  C      -1.101263     -0.544258     -0.131210
  H      -1.148073     -2.673278      0.064928
  H      -5.092733     -2.913731     -0.892344
  H      -5.705139     -2.856412      0.783998
  H      -5.056056     -4.373592      0.130045
  C      -1.843677      0.656866     -0.107565
  O      -3.886643      1.773999      0.188332
  N       0.254121     -0.555437     -0.368663
  C      -1.165568      1.923958     -0.342569
  C      -5.267653      1.792356      0.453617
  C       0.834221      0.562142     -0.567852
  N       0.210554      1.765183     -0.565857
  O      -1.637162      3.037930     -0.366743
  H      -5.551872      2.842815      0.428711
  H      -5.494032      1.379681      1.442265
  H      -5.832844      1.246780     -0.309464
  H       0.725038      2.621201     -0.731956
  H       1.900877      0.564395     -0.753806
>
25
Coordinates from ORCA-job CO_H10C10N2O3_ff1ead45b85fb8873df139752b8b97eb~3_scan Relaxed Surface Scan Step 16
  C      -3.130021     -1.781899      0.395222
  O      -3.697289     -2.985779      0.717159
  C      -3.860252     -0.591618      0.442478
  C      -1.772101     -1.758627      0.136918
  C      -4.866609     -3.350501      0.014301
  C      -3.249129      0.628349      0.194944
  H      -4.911387     -0.638011      0.675892
  C      -1.134792     -0.544860     -0.110873
  H      -1.198804     -2.669582      0.127410
  H      -4.716996     -3.273553     -1.066684
  H      -5.731524     -2.742933      0.300096
  H      -5.060766     -4.387879      0.281067
  C      -1.864098      0.663130     -0.095138
  O      -3.887944      1.810039      0.222446
  N       0.214717     -0.575969     -0.376037
  C      -1.177017      1.918806     -0.368267
  C      -5.262512      1.848128      0.518942
  C       0.803022      0.531076     -0.608304
  N       0.192244      1.740587     -0.616114
  O      -1.637641      3.036712     -0.404463
  H      -5.536241      2.900989      0.482069
  H      -5.470040      1.454807      1.519425
  H      -5.850220      1.295379     -0.221530
  H       0.712315      2.587730     -0.808635
  H       1.865463      0.517712     -0.816314
>
25
Coordinates from ORCA-job CO_H10C10N2O3_ff1ead45b85fb8873df139752b8b97eb~3_scan Relaxed Surface Scan Step 17
  C      -3.177839     -1.747039      0.485254
  O      -3.790683     -2.928798      0.833246
  C      -3.894436     -0.549024      0.518061
  C      -1.829654     -1.752776      0.189449
  C      -4.747657     -3.406751     -0.088241
  C      -3.272893      0.658742      0.237892
  H      -4.939982     -0.585802      0.779208
  C      -1.181355     -0.551270     -0.095307
  H      -1.268095     -2.671374      0.182163
  H      -4.280198     -3.642729     -1.050398
  H      -5.555342     -2.686363     -0.254293
  H      -5.158552     -4.315041      0.348366
  C      -1.893703      0.666312     -0.082535
  O      -3.894196      1.849343      0.255992
  N       0.160537     -0.606339     -0.391478
  C      -1.194227      1.908151     -0.390479
  C      -5.260920      1.911135      0.584540
  C       0.759472      0.488136     -0.654704
  N       0.165935      1.706064     -0.666862
  O      -1.639769      3.031638     -0.432612
  H      -5.521137      2.967021      0.538065
  H      -5.449500      1.535142      1.595225
  H      -5.873337      1.355500     -0.133248
  H       0.693567      2.542595     -0.883960
  H       1.816341      0.455758     -0.887330
>
25
Coordinates from ORCA-job CO_H10C10N2O3_ff1ead45b85fb8873df139752b8b97eb~3_scan Relaxed Surface Scan Step 18
  C      -3.251664     -1.702852      0.554442
  O      -3.914627     -2.860277      0.907665
  C      -3.944517     -0.492540      0.574790
  C      -1.913000     -1.746240      0.222869
  C      -4.602171     -3.477408     -0.159835
  C      -3.300754      0.699506      0.273415
  H      -4.987094     -0.511077      0.849079
  C      -1.243784     -0.562727     -0.088171
  H      -1.371328     -2.677127      0.212791
  H      -3.910221     -3.781895     -0.952989
  H      -5.360149     -2.811113     -0.587522
  H      -5.086393     -4.357163      0.259380
  C      -1.927724      0.671319     -0.070379
  O      -3.896478      1.902599      0.283123
  N       0.089887     -0.651623     -0.411724
  C      -1.204641      1.894378     -0.400702
  C      -5.256454      1.996860      0.632627
  C       0.709118      0.426566     -0.694508
  N       0.144374      1.658115     -0.702750
  O      -1.624201      3.027695     -0.441053
  H      -5.495060      3.057496      0.578679
  H      -5.436360      1.635189      1.649978
  H      -5.891616      1.446510     -0.069072
  H       0.687280      2.480464     -0.935881
  H       1.759954      0.367579     -0.948242
>
25
Coordinates from ORCA-job CO_H10C10N2O3_ff1ead45b85fb8873df139752b8b97eb~3_scan Relaxed Surface Scan Step 19
  C      -3.338763     -1.658604      0.564912
  O      -4.046903     -2.791140      0.907540
  C      -4.000239     -0.431610      0.592520
  C      -2.006639     -1.736040      0.210151
  C      -4.460592     -3.572646     -0.193065
  C      -3.327688      0.745829      0.294737
  H      -5.040357     -0.428944      0.875270
  C      -1.310804     -0.569011     -0.101912
  H      -1.485627     -2.678701      0.185801
  H      -3.607887     -3.908761     -0.792281
  H      -5.148473     -3.012941     -0.837434
  H      -4.975059     -4.435712      0.225009
  C      -1.960044      0.683450     -0.064806
  O      -3.893062      1.963006      0.313019
  N       0.016094     -0.691904     -0.442744
  C      -1.207303      1.888712     -0.393372
  C      -5.246473      2.089643      0.678247
  C       0.661380      0.371324     -0.723902
  N       0.130897      1.617952     -0.714691
  O      -1.595241      3.033709     -0.417654
  H      -5.458492      3.156342      0.633355
  H      -5.424219      1.725862      1.695149
  H      -5.902752      1.559760     -0.019602
  H       0.693606      2.427073     -0.947054
  H       1.707018      0.285586     -0.991183
>
25
Coordinates from ORCA-job CO_H10C10N2O3_ff1ead45b85fb8873df139752b8b97eb~3_scan Relaxed Surface Scan Step 20
  C      -3.419333     -1.623253      0.521563
  O      -4.172336     -2.725995      0.845045
  C      -4.048543     -0.379064      0.576499
  C      -2.090966     -1.723314      0.153938
  C      -4.345936     -3.674773     -0.186608
  C      -3.349029      0.787777      0.303272
  H      -5.086967     -0.359220      0.863609
  C      -1.369683     -0.566936     -0.136343
  H      -1.585084     -2.673070      0.103323
  H      -3.392938     -4.080867     -0.537881
  H      -4.879667     -3.233486     -1.035423
  H      -4.944270     -4.476394      0.242324
  C      -1.985334      0.700924     -0.066480
  O      -3.885811      2.017147      0.348470
  N      -0.047771     -0.716304     -0.487290
  C      -1.204504      1.893016     -0.372954
  C      -5.234032      2.167639      0.723682
  C       0.622936      0.336242     -0.748606
  N       0.124731      1.595368     -0.709232
  O      -1.562319      3.048199     -0.368729
  H      -5.420968      3.239779      0.703039
  H      -5.415326      1.785866      1.733319
  H      -5.905867      1.668417      0.018149
  H       0.706690      2.394795     -0.927065
  H       1.664702      0.229741     -1.023611
>
25
Coordinates from ORCA-job CO_H10C10N2O3_ff1ead45b85fb8873df139752b8b97eb~3_scan Relaxed Surface Scan Step 21
  C      -3.489977     -1.595087      0.472650
  O      -4.285291     -2.670765      0.750952
  C      -4.091947     -0.336757      0.558733
  C      -2.170713     -1.712227      0.076366
  C      -4.225924     -3.758107     -0.149237
  C      -3.370548      0.820465      0.312417
  H      -5.127980     -0.305803      0.852574
  C      -1.427619     -0.562919     -0.187278
  H      -1.682990     -2.667058     -0.022887
  H      -3.328267     -4.365692      0.001900
  H      -4.254453     -3.412548     -1.185886
  H      -5.104816     -4.365733      0.060399
  C      -2.010771      0.716127     -0.070735
  O      -3.882314      2.059293      0.388492
  N      -0.114813     -0.733368     -0.562864
  C      -1.205844      1.897963     -0.347330
  C      -5.224523      2.227337      0.777036
  C       0.577702      0.310850     -0.800401
  N       0.111666      1.579435     -0.712250
  O      -1.533192      3.061291     -0.297415
  H      -5.390002      3.303172      0.784712
  H      -5.406798      1.823655      1.777953
  H      -5.910863      1.759288      0.064150
  H       0.710245      2.371407     -0.911243
  H       1.612407      0.188013     -1.094797
>
25
Coordinates from ORCA-job CO_H10C10N2O3_ff1ead45b85fb8873df139752b8b97eb~3_scan Relaxed Surface Scan Step 22
  C      -3.555808     -1.573351      0.377618
  O      -4.384739     -2.624991      0.614065
  C      -4.130286     -0.304530      0.512176
  C      -2.237638     -1.702557     -0.019654
  C      -4.147333     -3.821478     -0.096153
  C      -3.386179      0.844464      0.305712
  H      -5.165790     -0.263598      0.805815
  C      -1.471890     -0.559052     -0.241400
  H      -1.764317     -2.660330     -0.152225
  H      -3.313063     -4.386854      0.331447
  H      -3.944226     -3.620538     -1.151235
  H      -5.059544     -4.408667     -0.001500
  C      -2.027794      0.726957     -0.080994
  O      -3.872399      2.090221      0.426875
  N      -0.162184     -0.744047     -0.621454
  C      -1.199267      1.900108     -0.316709
  C      -5.211947      2.271460      0.817997
  C       0.551953      0.293238     -0.823277
  N       0.112150      1.567221     -0.692523
  O      -1.501869      3.067978     -0.227073
  H      -5.356142      3.349494      0.862316
  H      -5.405085      1.837304      1.804059
  H      -5.905354      1.841692      0.088037
  H       0.726783      2.353064     -0.864897
  H       1.584340      0.159027     -1.121011
>
25
Coordinates from ORCA-job CO_H10C10N2O3_ff1ead45b85fb8873df139752b8b97eb~3_scan Relaxed Surface Scan Step 23
  C      -3.609904     -1.557167      0.256794
  O      -4.467669     -2.589736      0.450248
  C      -4.159686     -0.283421      0.449442
  C      -2.288557     -1.692744     -0.127230
  C      -4.100530     -3.862524     -0.032138
  C      -3.396768      0.859279      0.290131
  H      -5.196246     -0.237892      0.738359
  C      -1.502943     -0.553410     -0.298008
  H      -1.823613     -2.648813     -0.294544
  H      -3.278925     -4.291775      0.549655
  H      -3.814572     -3.819657     -1.086751
  H      -4.984713     -4.487567      0.082294
  C      -2.037458      0.734810     -0.093124
  O      -3.861099      2.107336      0.464070
  N      -0.193038     -0.747015     -0.673421
  C      -1.188402      1.901330     -0.279088
  C      -5.200858      2.295347      0.850809
  C       0.539873      0.284824     -0.831986
  N       0.120327      1.560287     -0.658408
  O      -1.471685      3.070363     -0.149018
  H      -5.328111      3.373073      0.935849
  H      -5.409717      1.826567      1.817671
  H      -5.894595      1.905353      0.099160
  H       0.748923      2.341488     -0.798321
  H       1.572343      0.143896     -1.126433
>
25
Coordinates from ORCA-job CO_H10C10N2O3_ff1ead45b85fb8873df139752b8b97eb~3_scan Relaxed Surface Scan Step 24
  C      -3.651542     -1.544302      0.125485
  O      -4.528257     -2.567334      0.271029
  C      -4.181927     -0.272667      0.379984
  C      -2.326021     -1.682650     -0.242469
  C      -4.072027     -3.880690      0.041324